15
Lattice="15.934 0.0 0.0 0.0 15.934 0.0 0.0 0.0 15.934" Properties=species:S:1:pos:R:3 pbc="F F F" Time = 0.0 energy = 297.0
O  4.645000  4.122000  10.422000
C  5.478000  5.115000  9.833000
C  5.518000  6.419000  10.374000
H  4.992000  6.679000  11.254000
C  6.385000  7.361000  9.726000
H  6.420000  8.449000  9.948000
C  7.033000  7.058000  8.553000
N  7.967000  7.967000  7.967000
H  7.682000  8.957000  8.253000
H  7.988000  7.864000  6.933000
C  6.806000  5.816000  7.884000
H  7.248000  5.578000  6.974000
C  6.008000  4.866000  8.544000
H  5.896000  3.839000  8.158000
H  3.607000  4.344000  10.187000
15
Lattice="15.934 0.0 0.0 0.0 15.934 0.0 0.0 0.0 15.934" Properties=species:S:1:pos:R:3 pbc="F F F" Time = 0.0 energy = 300.4
O  4.812000  3.766000  9.971000
C  5.560000  4.889000  9.415000
C  5.405000  6.185000  9.967000
H  4.851000  6.241000  10.896000
C  6.200000  7.211000  9.399000
H  6.163000  8.187000  9.854000
C  6.988000  6.985000  8.288000
N  7.967000  7.967000  7.967000
H  7.683000  8.847000  8.343000
H  8.209000  8.076000  6.967000
C  6.902000  5.732000  7.594000
H  7.276000  5.785000  6.621000
C  6.181000  4.678000  8.153000
H  6.027000  3.822000  7.495000
H  3.839000  4.153000  9.886000
15
Lattice="15.934 0.0 0.0 0.0 15.934 0.0 0.0 0.0 15.934" Properties=species:S:1:pos:R:3 pbc="F F F" Time = 0.0 energy = 286.7
O  4.465000  3.834000  9.399000
C  5.188000  4.966000  9.010000
C  5.075000  6.226000  9.645000
H  4.303000  6.310000  10.392000
C  5.901000  7.274000  9.210000
H  5.823000  8.249000  9.704000
C  6.877000  7.032000  8.269000
N  7.967000  7.967000  7.967000
H  7.805000  8.913000  8.294000
H  8.183000  8.030000  6.925000
C  6.891000  5.762000  7.564000
H  7.682000  5.622000  6.785000
C  6.171000  4.720000  8.037000
H  6.146000  3.764000  7.415000
H  3.481000  3.943000  9.058000
15
Lattice="15.934 0.0 0.0 0.0 15.934 0.0 0.0 0.0 15.934" Properties=species:S:1:pos:R:3 pbc="F F F" Time = 0.0 energy = 296.7
O  4.299000  4.093000  9.832000
C  5.243000  5.051000  9.508000
C  5.090000  6.455000  9.809000
H  4.362000  6.775000  10.553000
C  5.949000  7.399000  9.227000
H  5.828000  8.484000  9.418000
C  7.003000  6.999000  8.429000
N  7.967000  7.967000  7.967000
H  8.021000  8.916000  8.363000
H  7.747000  7.999000  6.935000
C  7.146000  5.641000  8.130000
H  7.909000  5.306000  7.376000
C  6.375000  4.629000  8.785000
H  6.400000  3.566000  8.429000
H  3.242000  4.380000  9.623000
15
Lattice="15.934 0.0 0.0 0.0 15.934 0.0 0.0 0.0 15.934" Properties=species:S:1:pos:R:3 pbc="F F F" Time = 0.0 energy = 293.9
O  4.493000  3.997000  9.770000
C  5.368000  4.988000  9.413000
C  5.271000  6.314000  9.903000
H  4.485000  6.616000  10.632000
C  6.089000  7.323000  9.399000
H  5.990000  8.368000  9.688000
C  6.967000  7.042000  8.334000
N  7.967000  7.967000  7.967000
H  7.730000  8.941000  8.227000
H  8.129000  7.957000  6.938000
C  7.190000  5.704000  7.983000
H  7.833000  5.512000  7.089000
C  6.360000  4.726000  8.474000
H  6.614000  3.737000  8.119000
H  3.488000  4.247000  9.628000
15
Lattice="15.934 0.0 0.0 0.0 15.934 0.0 0.0 0.0 15.934" Properties=species:S:1:pos:R:3 pbc="F F F" Time = 0.0 energy = 296.1
O  5.125000  3.455000  9.818000
C  5.719000  4.637000  9.274000
C  5.487000  5.925000  9.829000
H  4.780000  6.043000  10.688000
C  6.140000  7.077000  9.314000
H  5.986000  8.025000  9.856000
C  7.102000  6.958000  8.332000
N  7.967000  7.967000  7.967000
H  7.497000  8.844000  8.221000
H  8.164000  8.009000  6.939000
C  7.259000  5.693000  7.768000
H  7.819000  5.549000  6.910000
C  6.653000  4.510000  8.257000
H  6.725000  3.662000  7.621000
H  4.121000  3.651000  9.952000
15
Lattice="15.934 0.0 0.0 0.0 15.934 0.0 0.0 0.0 15.934" Properties=species:S:1:pos:R:3 pbc="F F F" Time = 0.0 energy = 278.6
O  4.518000  3.754000  9.709000
C  5.223000  4.828000  9.182000
C  4.977000  6.147000  9.594000
H  4.116000  6.331000  10.248000
C  5.846000  7.193000  9.237000
H  5.589000  8.138000  9.623000
C  6.959000  6.969000  8.398000
N  7.967000  7.967000  7.967000
H  7.607000  8.906000  8.272000
H  8.006000  7.985000  6.967000
C  7.134000  5.633000  7.982000
H  8.088000  5.456000  7.342000
C  6.288000  4.559000  8.306000
H  6.499000  3.528000  7.929000
H  3.550000  3.871000  9.346000
15
Lattice="15.934 0.0 0.0 0.0 15.934 0.0 0.0 0.0 15.934" Properties=species:S:1:pos:R:3 pbc="F F F" Time = 0.0 energy = 283.9
O  4.444000  3.982000  9.694000
C  5.235000  4.981000  9.196000
C  5.066000  6.321000  9.518000
H  4.282000  6.604000  10.196000
C  5.912000  7.346000  9.091000
H  5.878000  8.258000  9.585000
C  6.988000  6.976000  8.268000
N  7.967000  7.967000  7.967000
H  7.924000  8.874000  8.509000
H  7.914000  8.224000  6.981000
C  7.078000  5.680000  7.776000
H  7.995000  5.526000  7.128000
C  6.274000  4.658000  8.314000
H  6.522000  3.641000  7.942000
H  3.432000  4.188000  9.513000
15
Lattice="15.934 0.0 0.0 0.0 15.934 0.0 0.0 0.0 15.934" Properties=species:S:1:pos:R:3 pbc="F F F" Time = 0.0 energy = 289.4
O  4.711000  3.990000  9.910000
C  5.431000  5.005000  9.345000
C  5.284000  6.359000  9.816000
H  4.595000  6.600000  10.606000
C  6.092000  7.412000  9.327000
H  5.989000  8.435000  9.622000
C  7.009000  7.051000  8.363000
N  7.967000  7.967000  7.967000
H  7.956000  8.898000  8.435000
H  7.925000  8.138000  6.931000
C  7.148000  5.765000  7.864000
H  7.851000  5.647000  6.992000
C  6.380000  4.747000  8.334000
H  6.426000  3.778000  7.780000
H  3.768000  4.122000  9.479000
15
Lattice="15.934 0.0 0.0 0.0 15.934 0.0 0.0 0.0 15.934" Properties=species:S:1:pos:R:3 pbc="F F F" Time = 0.0 energy = 275.0
O  4.511000  4.013000  10.358000
C  5.270000  5.053000  9.777000
C  5.129000  6.403000  10.116000
H  4.479000  6.644000  10.960000
C  6.033000  7.356000  9.576000
H  6.021000  8.364000  9.922000
C  6.990000  7.052000  8.559000
N  7.967000  7.967000  7.967000
H  7.937000  8.900000  8.420000
H  7.650000  8.197000  6.950000
C  7.035000  5.715000  8.180000
H  7.666000  5.368000  7.397000
C  6.184000  4.731000  8.773000
H  6.435000  3.741000  8.499000
H  3.595000  4.058000  9.798000
15
Lattice="15.934 0.0 0.0 0.0 15.934 0.0 0.0 0.0 15.934" Properties=species:S:1:pos:R:3 pbc="F F F" Time = 0.0 energy = 288.6
O  4.624000  4.059000  10.079000
C  5.496000  4.989000  9.525000
C  5.320000  6.339000  9.895000
H  4.534000  6.635000  10.642000
C  6.073000  7.368000  9.359000
H  6.002000  8.464000  9.433000
C  7.122000  6.930000  8.530000
N  7.967000  7.967000  7.967000
H  7.565000  8.879000  8.197000
H  7.934000  7.885000  6.926000
C  7.394000  5.602000  8.145000
H  8.048000  5.453000  7.303000
C  6.532000  4.639000  8.638000
H  6.574000  3.650000  8.240000
H  3.668000  4.132000  9.574000
15
Lattice="15.934 0.0 0.0 0.0 15.934 0.0 0.0 0.0 15.934" Properties=species:S:1:pos:R:3 pbc="F F F" Time = 0.0 energy = 290.7
O  4.654000  3.741000  9.987000
C  5.447000  4.836000  9.479000
C  5.182000  6.157000  9.877000
H  4.369000  6.396000  10.639000
C  6.001000  7.225000  9.331000
H  5.856000  8.251000  9.668000
C  7.020000  7.047000  8.408000
N  7.967000  7.967000  7.967000
H  7.848000  8.942000  8.360000
H  8.024000  8.001000  6.949000
C  7.351000  5.702000  8.096000
H  8.167000  5.485000  7.437000
C  6.626000  4.629000  8.599000
H  6.897000  3.624000  8.355000
H  3.687000  4.060000  9.851000
15
Lattice="15.934 0.0 0.0 0.0 15.934 0.0 0.0 0.0 15.934" Properties=species:S:1:pos:R:3 pbc="F F F" Time = 0.0 energy = 283.0
O  4.945000  3.467000  9.778000
C  5.674000  4.622000  9.418000
C  5.429000  5.914000  9.911000
H  4.540000  6.117000  10.497000
C  6.222000  6.961000  9.440000
H  5.905000  7.990000  9.707000
C  7.235000  6.853000  8.457000
N  7.967000  7.967000  7.967000
H  7.380000  8.822000  8.196000
H  8.057000  7.894000  6.936000
C  7.443000  5.539000  8.006000
H  8.115000  5.247000  7.110000
C  6.687000  4.470000  8.477000
H  6.810000  3.425000  8.088000
H  4.017000  3.771000  9.640000
15
Lattice="15.934 0.0 0.0 0.0 15.934 0.0 0.0 0.0 15.934" Properties=species:S:1:pos:R:3 pbc="F F F" Time = 0.0 energy = 290.5
O  5.103000  3.467000  10.055000
C  5.848000  4.625000  9.622000
C  5.576000  5.933000  10.083000
H  4.791000  6.196000  10.854000
C  6.262000  6.992000  9.503000
H  5.920000  7.975000  9.739000
C  7.304000  6.894000  8.557000
N  7.967000  7.967000  7.967000
H  7.583000  8.884000  8.367000
H  7.902000  7.986000  6.908000
C  7.586000  5.603000  8.111000
H  8.378000  5.425000  7.435000
C  6.846000  4.489000  8.584000
H  7.007000  3.526000  8.135000
H  4.163000  3.783000  9.906000
15
Lattice="15.934 0.0 0.0 0.0 15.934 0.0 0.0 0.0 15.934" Properties=species:S:1:pos:R:3 pbc="F F F" Time = 0.0 energy = 284.9
O  5.352000  3.544000  10.183000
C  5.962000  4.705000  9.654000
C  5.594000  6.026000  10.048000
H  4.861000  6.246000  10.791000
C  6.256000  7.086000  9.429000
H  5.836000  8.099000  9.544000
C  7.272000  6.882000  8.491000
N  7.967000  7.967000  7.967000
H  7.715000  8.795000  8.459000
H  7.865000  8.083000  6.919000
C  7.535000  5.629000  8.016000
H  8.209000  5.435000  7.247000
C  6.769000  4.563000  8.549000
H  7.006000  3.596000  8.201000
H  4.360000  3.600000  9.979000
15
Lattice="15.934 0.0 0.0 0.0 15.934 0.0 0.0 0.0 15.934" Properties=species:S:1:pos:R:3 pbc="F F F" Time = 0.0 energy = 279.9
O  4.976000  3.667000  9.811000
C  5.715000  4.809000  9.531000
C  5.378000  6.102000  9.901000
H  4.573000  6.260000  10.588000
C  6.144000  7.158000  9.412000
H  5.796000  8.155000  9.692000
C  7.191000  6.958000  8.544000
N  7.967000  7.967000  7.967000
H  7.978000  8.795000  8.585000
H  7.777000  8.189000  6.978000
C  7.577000  5.618000  8.300000
H  8.409000  5.371000  7.594000
C  6.795000  4.549000  8.679000
H  6.870000  3.579000  8.152000
H  4.020000  3.957000  9.778000
15
Lattice="15.934 0.0 0.0 0.0 15.934 0.0 0.0 0.0 15.934" Properties=species:S:1:pos:R:3 pbc="F F F" Time = 0.0 energy = 287.4
O  4.581000  3.752000  9.753000
C  5.268000  4.832000  9.155000
C  4.995000  6.131000  9.540000
H  4.110000  6.295000  10.144000
C  5.796000  7.211000  9.031000
H  5.482000  8.220000  9.346000
C  6.963000  6.998000  8.342000
N  7.967000  7.967000  7.967000
H  7.681000  8.944000  8.271000
H  7.986000  8.020000  6.943000
C  7.265000  5.643000  7.990000
H  8.277000  5.426000  7.550000
C  6.499000  4.558000  8.469000
H  6.811000  3.489000  8.515000
H  3.575000  4.048000  9.691000
15
Lattice="15.934 0.0 0.0 0.0 15.934 0.0 0.0 0.0 15.934" Properties=species:S:1:pos:R:3 pbc="F F F" Time = 0.0 energy = 278.9
O  4.290000  3.871000  9.140000
C  5.229000  4.857000  8.996000
C  4.851000  6.242000  9.112000
H  3.848000  6.577000  9.526000
C  5.763000  7.223000  8.802000
H  5.459000  8.254000  8.888000
C  7.054000  6.933000  8.295000
N  7.967000  7.967000  7.967000
H  7.816000  8.812000  8.593000
H  7.798000  8.115000  6.958000
C  7.413000  5.594000  8.291000
H  8.402000  5.263000  7.878000
C  6.572000  4.557000  8.643000
H  7.041000  3.567000  8.354000
H  3.333000  4.283000  9.374000
15
Lattice="15.934 0.0 0.0 0.0 15.934 0.0 0.0 0.0 15.934" Properties=species:S:1:pos:R:3 pbc="F F F" Time = 0.0 energy = 281.1
O  4.241000  3.896000  9.293000
C  5.090000  4.917000  8.899000
C  4.789000  6.237000  9.214000
H  3.740000  6.540000  9.479000
C  5.638000  7.314000  8.841000
H  5.289000  8.297000  9.085000
C  6.896000  7.016000  8.357000
N  7.967000  7.967000  7.967000
H  7.878000  8.953000  8.209000
H  8.003000  7.942000  6.936000
C  7.197000  5.628000  8.102000
H  8.218000  5.240000  7.915000
C  6.281000  4.581000  8.284000
H  6.579000  3.512000  8.041000
H  3.290000  4.077000  9.024000
15
Lattice="15.934 0.0 0.0 0.0 15.934 0.0 0.0 0.0 15.934" Properties=species:S:1:pos:R:3 pbc="F F F" Time = 0.0 energy = 282.4
O  4.249000  3.902000  9.296000
C  5.097000  4.918000  8.905000
C  4.790000  6.245000  9.219000
H  3.764000  6.552000  9.478000
C  5.636000  7.314000  8.844000
H  5.297000  8.304000  9.077000
C  6.899000  7.010000  8.358000
N  7.967000  7.967000  7.967000
H  7.883000  8.966000  8.213000
H  7.997000  7.960000  6.943000
C  7.201000  5.634000  8.090000
H  8.195000  5.237000  7.908000
C  6.283000  4.584000  8.283000
H  6.592000  3.534000  8.044000
H  3.287000  4.081000  9.032000
15
Lattice="15.934 0.0 0.0 0.0 15.934 0.0 0.0 0.0 15.934" Properties=species:S:1:pos:R:3 pbc="F F F" Time = 0.0 energy = 285.2
O  4.403000  3.931000  9.579000
C  5.260000  4.965000  9.225000
C  5.176000  6.234000  9.701000
H  4.343000  6.493000  10.434000
C  6.055000  7.220000  9.304000
H  5.929000  8.229000  9.734000
C  7.003000  7.003000  8.340000
N  7.967000  7.967000  7.967000
H  7.781000  8.882000  8.446000
H  7.946000  8.080000  6.922000
C  7.154000  5.666000  7.871000
H  7.926000  5.371000  7.103000
C  6.293000  4.631000  8.328000
H  6.452000  3.545000  8.076000
H  3.380000  4.189000  9.663000
15
Lattice="15.934 0.0 0.0 0.0 15.934 0.0 0.0 0.0 15.934" Properties=species:S:1:pos:R:3 pbc="F F F" Time = 0.0 energy = 290.0
O  4.607000  3.937000  10.072000
C  5.281000  5.053000  9.443000
C  5.001000  6.407000  9.768000
H  4.116000  6.685000  10.383000
C  5.863000  7.387000  9.229000
H  5.736000  8.444000  9.401000
C  6.943000  7.040000  8.376000
N  7.967000  7.967000  7.967000
H  7.825000  8.902000  8.390000
H  8.066000  7.914000  6.911000
C  7.207000  5.722000  8.101000
H  7.933000  5.480000  7.384000
C  6.338000  4.690000  8.577000
H  6.358000  3.672000  8.272000
H  3.692000  3.760000  9.651000
15
Lattice="15.934 0.0 0.0 0.0 15.934 0.0 0.0 0.0 15.934" Properties=species:S:1:pos:R:3 pbc="F F F" Time = 0.0 energy = 281.5
O  4.580000  4.052000  10.036000
C  5.224000  5.118000  9.430000
C  4.963000  6.477000  9.639000
H  4.250000  6.686000  10.476000
C  5.857000  7.469000  9.136000
H  5.736000  8.584000  9.310000
C  6.944000  7.087000  8.378000
N  7.967000  7.967000  7.967000
H  7.807000  8.956000  8.235000
H  7.922000  7.978000  6.932000
C  7.177000  5.710000  8.058000
H  7.956000  5.499000  7.296000
C  6.254000  4.801000  8.514000
H  6.369000  3.779000  8.146000
H  3.634000  3.965000  9.552000
15
Lattice="15.934 0.0 0.0 0.0 15.934 0.0 0.0 0.0 15.934" Properties=species:S:1:pos:R:3 pbc="F F F" Time = 0.0 energy = 280.2
O  4.540000  3.990000  10.139000
C  5.320000  4.976000  9.498000
C  5.094000  6.361000  9.701000
H  4.263000  6.567000  10.406000
C  5.995000  7.284000  9.264000
H  5.855000  8.386000  9.491000
C  7.010000  6.952000  8.382000
N  7.967000  7.967000  7.967000
H  7.558000  8.888000  8.200000
H  8.122000  7.932000  6.938000
C  7.254000  5.593000  8.092000
H  8.006000  5.290000  7.313000
C  6.358000  4.642000  8.598000
H  6.487000  3.603000  8.245000
H  3.616000  3.961000  9.614000
15
Lattice="15.934 0.0 0.0 0.0 15.934 0.0 0.0 0.0 15.934" Properties=species:S:1:pos:R:3 pbc="F F F" Time = 0.0 energy = 287.9
O  4.444000  4.005000  9.974000
C  5.331000  4.932000  9.488000
C  5.088000  6.276000  9.788000
H  4.214000  6.509000  10.424000
C  5.911000  7.234000  9.245000
H  5.643000  8.323000  9.464000
C  6.941000  6.977000  8.332000
N  7.967000  7.967000  7.967000
H  7.689000  8.907000  8.267000
H  8.157000  7.942000  6.987000
C  7.256000  5.621000  8.245000
H  7.932000  5.330000  7.486000
C  6.472000  4.555000  8.806000
H  6.664000  3.547000  8.537000
H  3.470000  4.340000  9.877000
15
Lattice="15.934 0.0 0.0 0.0 15.934 0.0 0.0 0.0 15.934" Properties=species:S:1:pos:R:3 pbc="F F F" Time = 0.0 energy = 301.6
O  4.407000  4.172000  10.199000
C  5.129000  5.155000  9.463000
C  4.977000  6.534000  9.798000
H  4.125000  6.831000  10.437000
C  5.932000  7.440000  9.296000
H  5.877000  8.491000  9.766000
C  7.064000  7.006000  8.497000
N  7.967000  7.967000  7.967000
H  7.591000  8.921000  8.066000
H  8.048000  7.880000  6.976000
C  7.143000  5.606000  8.172000
H  7.891000  5.214000  7.531000
C  6.216000  4.709000  8.711000
H  6.154000  3.741000  8.313000
H  3.418000  4.321000  10.040000
15
Lattice="15.934 0.0 0.0 0.0 15.934 0.0 0.0 0.0 15.934" Properties=species:S:1:pos:R:3 pbc="F F F" Time = 0.0 energy = 280.2
O  4.182000  4.287000  10.009000
C  5.108000  5.121000  9.408000
C  4.975000  6.519000  9.599000
H  4.207000  6.934000  10.240000
C  5.917000  7.439000  9.202000
H  5.882000  8.467000  9.377000
C  6.967000  7.033000  8.348000
N  7.967000  7.967000  7.967000
H  7.762000  8.932000  8.289000
H  7.920000  8.011000  6.862000
C  6.988000  5.691000  7.987000
H  7.856000  5.415000  7.324000
C  6.059000  4.762000  8.475000
H  6.436000  3.698000  8.391000
H  3.203000  4.497000  9.689000
15
Lattice="15.934 0.0 0.0 0.0 15.934 0.0 0.0 0.0 15.934" Properties=species:S:1:pos:R:3 pbc="F F F" Time = 0.0 energy = 287.9
O  4.775000  3.730000  9.840000
C  5.370000  4.800000  9.293000
C  5.105000  6.134000  9.642000
H  4.215000  6.326000  10.196000
C  5.959000  7.159000  9.237000
H  5.763000  8.213000  9.456000
C  7.043000  6.993000  8.463000
N  7.967000  7.967000  7.967000
H  7.637000  8.968000  8.093000
H  8.208000  7.716000  6.920000
C  7.281000  5.680000  8.036000
H  8.105000  5.415000  7.276000
C  6.487000  4.579000  8.404000
H  6.752000  3.530000  8.193000
H  3.785000  3.777000  9.788000
15
Lattice="15.934 0.0 0.0 0.0 15.934 0.0 0.0 0.0 15.934" Properties=species:S:1:pos:R:3 pbc="F F F" Time = 0.0 energy = 296.8
O  4.892000  3.715000  9.947000
C  5.650000  4.818000  9.396000
C  5.694000  6.037000  10.076000
H  4.933000  6.258000  10.840000
C  6.475000  7.059000  9.607000
H  6.582000  8.066000  10.011000
C  7.273000  6.892000  8.425000
N  7.967000  7.967000  7.967000
H  7.852000  8.946000  8.218000
H  8.106000  7.903000  6.963000
C  7.224000  5.686000  7.741000
H  7.916000  5.615000  6.892000
C  6.396000  4.642000  8.245000
H  6.372000  3.655000  7.693000
H  3.915000  3.920000  9.654000
15
Lattice="15.934 0.0 0.0 0.0 15.934 0.0 0.0 0.0 15.934" Properties=species:S:1:pos:R:3 pbc="F F F" Time = 0.0 energy = 295.3
O  4.486000  3.925000  9.576000
C  5.295000  4.897000  9.019000
C  4.904000  6.269000  8.995000
H  3.912000  6.507000  9.326000
C  5.773000  7.222000  8.526000
H  5.498000  8.265000  8.581000
C  7.071000  6.912000  8.040000
N  7.967000  7.967000  7.967000
H  7.676000  8.861000  8.431000
H  8.095000  8.196000  6.987000
C  7.354000  5.509000  7.841000
H  8.345000  5.187000  7.429000
C  6.468000  4.518000  8.333000
H  6.721000  3.482000  8.397000
H  3.514000  4.305000  9.554000
15
Lattice="15.934 0.0 0.0 0.0 15.934 0.0 0.0 0.0 15.934" Properties=species:S:1:pos:R:3 pbc="F F F" Time = 0.0 energy = 286.0
O  4.233000  3.793000  8.381000
C  5.176000  4.766000  8.331000
C  4.830000  6.088000  8.759000
H  3.917000  6.287000  9.274000
C  5.730000  7.128000  8.637000
H  5.448000  8.031000  9.203000
C  6.985000  6.953000  8.035000
N  7.967000  7.967000  7.967000
H  7.354000  8.758000  8.261000
H  8.280000  8.206000  6.988000
C  7.305000  5.692000  7.620000
H  8.338000  5.530000  7.264000
C  6.449000  4.609000  7.814000
H  6.682000  3.602000  7.519000
H  3.307000  4.163000  8.523000
15
Lattice="15.934 0.0 0.0 0.0 15.934 0.0 0.0 0.0 15.934" Properties=species:S:1:pos:R:3 pbc="F F F" Time = 0.0 energy = 281.8
O  4.278000  3.694000  8.410000
C  5.127000  4.828000  8.298000
C  4.863000  6.079000  8.769000
H  3.836000  6.365000  9.101000
C  5.762000  7.151000  8.741000
H  5.477000  8.182000  8.988000
C  7.021000  6.901000  8.183000
N  7.967000  7.967000  7.967000
H  7.420000  8.756000  8.398000
H  8.214000  8.151000  6.963000
C  7.314000  5.615000  7.756000
H  8.270000  5.566000  7.276000
C  6.344000  4.617000  7.692000
H  6.518000  3.622000  7.240000
H  3.337000  4.061000  8.618000
15
Lattice="15.934 0.0 0.0 0.0 15.934 0.0 0.0 0.0 15.934" Properties=species:S:1:pos:R:3 pbc="F F F" Time = 0.0 energy = 312.6
O  4.256000  3.813000  8.425000
C  5.175000  4.793000  8.362000
C  4.981000  6.031000  8.984000
H  4.045000  6.237000  9.522000
C  5.944000  7.074000  8.821000
H  5.846000  8.128000  9.123000
C  7.172000  6.874000  8.138000
N  7.967000  7.967000  7.967000
H  7.670000  8.768000  8.572000
H  8.243000  8.181000  6.965000
C  7.329000  5.629000  7.537000
H  8.194000  5.471000  6.905000
C  6.454000  4.550000  7.773000
H  6.775000  3.603000  7.328000
H  3.260000  4.179000  8.456000
15
Lattice="15.934 0.0 0.0 0.0 15.934 0.0 0.0 0.0 15.934" Properties=species:S:1:pos:R:3 pbc="F F F" Time = 0.0 energy = 308.4
O  4.111000  3.882000  8.645000
C  5.077000  4.876000  8.550000
C  4.863000  6.162000  9.079000
H  3.875000  6.332000  9.492000
C  5.849000  7.161000  8.802000
H  5.895000  8.154000  9.223000
C  7.025000  6.934000  8.017000
N  7.967000  7.967000  7.967000
H  7.641000  8.862000  8.454000
H  8.281000  8.124000  6.994000
C  7.151000  5.669000  7.413000
H  7.929000  5.452000  6.704000
C  6.207000  4.686000  7.708000
H  6.210000  3.812000  7.041000
H  3.315000  4.375000  9.057000
15
Lattice="15.934 0.0 0.0 0.0 15.934 0.0 0.0 0.0 15.934" Properties=species:S:1:pos:R:3 pbc="F F F" Time = 0.0 energy = 293.9
O  4.331000  4.374000  10.499000
C  5.171000  5.284000  9.763000
C  5.077000  6.645000  9.967000
H  4.249000  6.898000  10.621000
C  5.927000  7.646000  9.385000
H  5.682000  8.696000  9.464000
C  7.071000  7.134000  8.688000
N  7.967000  7.967000  7.967000
H  7.522000  8.945000  7.985000
H  8.194000  7.671000  7.032000
C  7.073000  5.715000  8.381000
H  7.789000  5.280000  7.664000
C  6.134000  4.835000  8.899000
H  6.285000  3.781000  8.602000
H  3.418000  4.754000  10.314000
15
Lattice="15.934 0.0 0.0 0.0 15.934 0.0 0.0 0.0 15.934" Properties=species:S:1:pos:R:3 pbc="F F F" Time = 0.0 energy = 301.5
O  4.232000  3.737000  8.473000
C  5.117000  4.771000  8.345000
C  4.734000  6.148000  8.573000
H  3.679000  6.434000  8.917000
C  5.659000  7.181000  8.470000
H  5.385000  8.187000  8.825000
C  6.989000  6.932000  7.978000
N  7.967000  7.967000  7.967000
H  7.591000  8.914000  8.125000
H  8.236000  8.173000  6.965000
C  7.312000  5.537000  7.740000
H  8.340000  5.263000  7.461000
C  6.392000  4.458000  7.950000
H  6.779000  3.427000  7.958000
H  3.203000  3.978000  8.691000
15
Lattice="15.934 0.0 0.0 0.0 15.934 0.0 0.0 0.0 15.934" Properties=species:S:1:pos:R:3 pbc="F F F" Time = 0.0 energy = 291.8
O  4.214000  3.785000  8.820000
C  5.013000  4.846000  8.661000
C  4.584000  6.172000  8.829000
H  3.622000  6.462000  9.142000
C  5.542000  7.200000  8.575000
H  5.255000  8.242000  8.644000
C  6.856000  6.918000  8.222000
N  7.967000  7.967000  7.967000
H  7.611000  8.901000  8.331000
H  7.984000  7.966000  6.900000
C  7.290000  5.584000  7.937000
H  8.297000  5.330000  7.557000
C  6.346000  4.570000  8.059000
H  6.627000  3.524000  7.823000
H  3.287000  4.028000  9.043000
15
Lattice="15.934 0.0 0.0 0.0 15.934 0.0 0.0 0.0 15.934" Properties=species:S:1:pos:R:3 pbc="F F F" Time = 0.0 energy = 277.6
O  4.403000  3.740000  9.030000
C  5.113000  4.830000  8.641000
C  4.832000  6.177000  8.888000
H  3.788000  6.357000  9.259000
C  5.694000  7.257000  8.627000
H  5.304000  8.277000  8.792000
C  6.951000  6.962000  8.176000
N  7.967000  7.967000  7.967000
H  7.618000  8.878000  8.340000
H  8.206000  8.095000  6.997000
C  7.282000  5.636000  7.969000
H  8.298000  5.383000  7.735000
C  6.396000  4.574000  8.118000
H  6.655000  3.556000  7.876000
H  3.394000  4.022000  8.893000
15
Lattice="15.934 0.0 0.0 0.0 15.934 0.0 0.0 0.0 15.934" Properties=species:S:1:pos:R:3 pbc="F F F" Time = 0.0 energy = 301.9
O  4.424000  3.722000  9.049000
C  5.219000  4.787000  8.604000
C  4.796000  6.133000  8.863000
H  3.892000  6.436000  9.464000
C  5.670000  7.181000  8.606000
H  5.469000  8.248000  8.867000
C  7.007000  6.946000  8.004000
N  7.967000  7.967000  7.967000
H  7.563000  8.918000  8.190000
H  8.222000  8.067000  7.000000
C  7.370000  5.597000  7.791000
H  8.349000  5.390000  7.399000
C  6.490000  4.500000  8.072000
H  6.943000  3.531000  7.950000
H  3.420000  3.899000  9.011000
15
Lattice="15.934 0.0 0.0 0.0 15.934 0.0 0.0 0.0 15.934" Properties=species:S:1:pos:R:3 pbc="F F F" Time = 0.0 energy = 306.8
O  4.558000  3.958000  9.907000
C  5.315000  4.993000  9.384000
C  5.247000  6.308000  9.879000
H  4.498000  6.740000  10.601000
C  6.129000  7.298000  9.389000
H  6.096000  8.315000  9.785000
C  7.142000  7.027000  8.426000
N  7.967000  7.967000  7.967000
H  7.641000  8.920000  8.252000
H  8.121000  7.900000  6.968000
C  7.211000  5.667000  7.941000
H  7.909000  5.423000  7.174000
C  6.316000  4.684000  8.435000
H  6.370000  3.653000  8.077000
H  3.599000  4.138000  9.914000
15
Lattice="15.934 0.0 0.0 0.0 15.934 0.0 0.0 0.0 15.934" Properties=species:S:1:pos:R:3 pbc="F F F" Time = 0.0 energy = 277.2
O  4.438000  3.815000  9.866000
C  5.301000  4.855000  9.428000
C  5.018000  6.193000  9.636000
H  4.169000  6.515000  10.208000
C  5.861000  7.228000  9.145000
H  5.563000  8.285000  9.193000
C  7.095000  6.908000  8.607000
N  7.967000  7.967000  7.967000
H  7.497000  8.849000  8.141000
H  7.837000  7.857000  6.940000
C  7.418000  5.507000  8.513000
H  8.440000  5.212000  8.179000
C  6.575000  4.491000  8.975000
H  6.988000  3.500000  8.972000
H  3.466000  4.221000  9.746000
15
Lattice="15.934 0.0 0.0 0.0 15.934 0.0 0.0 0.0 15.934" Properties=species:S:1:pos:R:3 pbc="F F F" Time = 0.0 energy = 296.4
O  4.939000  3.607000  9.807000
C  5.539000  4.711000  9.274000
C  5.241000  6.035000  9.704000
H  4.432000  6.265000  10.434000
C  6.110000  7.063000  9.264000
H  5.972000  8.099000  9.575000
C  7.193000  6.836000  8.336000
N  7.967000  7.967000  7.967000
H  7.441000  8.847000  8.201000
H  7.880000  7.986000  6.915000
C  7.568000  5.539000  8.054000
H  8.375000  5.323000  7.339000
C  6.699000  4.514000  8.595000
H  6.940000  3.451000  8.405000
H  3.975000  3.851000  10.026000
15
Lattice="15.934 0.0 0.0 0.0 15.934 0.0 0.0 0.0 15.934" Properties=species:S:1:pos:R:3 pbc="F F F" Time = 0.0 energy = 293.7
O  4.597000  3.704000  9.229000
C  5.447000  4.712000  8.959000
C  5.217000  5.965000  9.534000
H  4.412000  6.172000  10.210000
C  6.056000  7.032000  9.229000
H  5.903000  7.968000  9.755000
C  7.097000  6.903000  8.355000
N  7.967000  7.967000  7.967000
H  7.523000  8.878000  8.192000
H  8.039000  7.993000  6.908000
C  7.388000  5.643000  7.801000
H  8.145000  5.532000  7.049000
C  6.621000  4.530000  8.106000
H  6.764000  3.666000  7.485000
H  3.642000  4.069000  9.169000
15
Lattice="15.934 0.0 0.0 0.0 15.934 0.0 0.0 0.0 15.934" Properties=species:S:1:pos:R:3 pbc="F F F" Time = 0.0 energy = 294.2
O  4.538000  4.319000  10.398000
C  5.415000  5.203000  9.905000
C  5.187000  6.572000  9.937000
H  4.254000  6.882000  10.424000
C  6.003000  7.565000  9.352000
H  5.846000  8.588000  9.702000
C  7.123000  7.073000  8.632000
N  7.967000  7.967000  7.967000
H  7.533000  8.864000  7.834000
H  8.072000  7.595000  6.994000
C  7.387000  5.708000  8.627000
H  8.257000  5.323000  8.166000
C  6.540000  4.795000  9.240000
H  6.671000  3.717000  9.110000
H  3.526000  4.590000  10.229000
15
Lattice="15.934 0.0 0.0 0.0 15.934 0.0 0.0 0.0 15.934" Properties=species:S:1:pos:R:3 pbc="F F F" Time = 0.0 energy = 307.5
O  4.771000  3.844000  9.943000
C  5.446000  4.847000  9.372000
C  5.055000  6.203000  9.443000
H  4.054000  6.464000  9.760000
C  5.932000  7.174000  8.953000
H  5.660000  8.227000  9.117000
C  7.174000  6.895000  8.417000
N  7.967000  7.967000  7.967000
H  7.324000  8.773000  7.999000
H  8.192000  7.822000  6.971000
C  7.617000  5.519000  8.452000
H  8.511000  5.225000  8.028000
C  6.777000  4.492000  8.860000
H  6.974000  3.474000  8.559000
H  3.800000  4.203000  10.114000
15
Lattice="15.934 0.0 0.0 0.0 15.934 0.0 0.0 0.0 15.934" Properties=species:S:1:pos:R:3 pbc="F F F" Time = 0.0 energy = 276.1
O  4.673000  3.496000  9.362000
C  5.563000  4.558000  9.214000
C  5.447000  5.773000  9.792000
H  4.740000  5.884000  10.627000
C  6.242000  6.893000  9.460000
H  6.036000  7.852000  9.904000
C  7.150000  6.822000  8.422000
N  7.967000  7.967000  7.967000
H  7.449000  8.836000  8.090000
H  8.112000  7.773000  6.895000
C  7.281000  5.590000  7.803000
H  7.937000  5.476000  6.889000
C  6.470000  4.492000  8.186000
H  6.635000  3.526000  7.707000
H  3.701000  3.765000  9.519000
15
Lattice="15.934 0.0 0.0 0.0 15.934 0.0 0.0 0.0 15.934" Properties=species:S:1:pos:R:3 pbc="F F F" Time = 0.0 energy = 285.7
O  4.173000  4.316000  9.908000
C  5.034000  5.324000  9.540000
C  4.674000  6.658000  9.424000
H  3.677000  7.044000  9.731000
C  5.721000  7.580000  8.950000
H  5.437000  8.664000  8.880000
C  6.974000  7.167000  8.510000
N  7.967000  7.967000  7.967000
H  7.682000  8.854000  8.313000
H  7.794000  8.019000  6.966000
C  7.266000  5.826000  8.666000
H  8.281000  5.453000  8.409000
C  6.330000  4.916000  9.287000
H  6.574000  3.920000  9.498000
H  3.215000  4.459000  9.680000
15
Lattice="15.934 0.0 0.0 0.0 15.934 0.0 0.0 0.0 15.934" Properties=species:S:1:pos:R:3 pbc="F F F" Time = 0.0 energy = 291.2
O  4.650000  3.927000  10.164000
C  5.483000  5.004000  9.690000
C  5.256000  6.382000  9.989000
H  4.431000  6.655000  10.605000
C  6.094000  7.321000  9.429000
H  5.849000  8.379000  9.544000
C  7.124000  6.976000  8.543000
N  7.967000  7.967000  7.967000
H  7.434000  8.914000  7.899000
H  8.173000  7.684000  6.991000
C  7.382000  5.629000  8.327000
H  8.201000  5.362000  7.705000
C  6.609000  4.654000  8.939000
H  6.665000  3.576000  8.680000
H  3.793000  4.392000  10.407000
15
Lattice="15.934 0.0 0.0 0.0 15.934 0.0 0.0 0.0 15.934" Properties=species:S:1:pos:R:3 pbc="F F F" Time = 0.0 energy = 314.7
O  4.642000  3.989000  10.155000
C  5.466000  4.931000  9.690000
C  5.342000  6.321000  10.029000
H  4.421000  6.772000  10.445000
C  6.117000  7.320000  9.370000
H  5.886000  8.351000  9.607000
C  7.187000  6.956000  8.513000
N  7.967000  7.967000  7.967000
H  7.530000  8.919000  8.032000
H  8.211000  7.866000  6.953000
C  7.453000  5.586000  8.349000
H  8.338000  5.321000  7.685000
C  6.566000  4.569000  8.914000
H  6.716000  3.527000  8.583000
H  3.743000  4.388000  10.368000
15
Lattice="15.934 0.0 0.0 0.0 15.934 0.0 0.0 0.0 15.934" Properties=species:S:1:pos:R:3 pbc="F F F" Time = 0.0 energy = 280.3
O  4.129000  4.108000  9.446000
C  5.010000  5.112000  9.060000