14
Lattice="15.917 0.0 0.0 0.0 15.917 0.0 0.0 0.0 15.917" Properties=species:S:1:pos:R:3 pbc="F F F" Time = 0.0 energy = 278.6
H  15.031000  12.493000  12.651000
C  15.105000  13.175000  13.459000
C  13.964000  13.399000  14.203000
H  13.098000  12.760000  14.083000
C  13.949000  14.379000  15.221000
H  13.130000  14.369000  15.887000
C  15.060000  15.164000  15.491000
N  15.095000  16.058000  16.622000
H  15.968000  16.617000  16.504000
H  14.291000  16.703000  16.761000
C  16.252000  14.893000  14.758000
H  17.174000  15.384000  15.046000
C  16.244000  13.952000  13.681000
H  17.214000  13.853000  13.097000
14
Lattice="15.917 0.0 0.0 0.0 15.917 0.0 0.0 0.0 15.917" Properties=species:S:1:pos:R:3 pbc="F F F" Time = 0.0 energy = 270.9
H  14.584000  12.520000  12.747000
C  14.587000  13.290000  13.524000
C  13.454000  13.692000  14.253000
H  12.557000  13.111000  14.204000
C  13.576000  14.678000  15.245000
H  12.674000  14.895000  15.870000
C  14.782000  15.373000  15.375000
N  15.012000  16.378000  16.471000
H  15.853000  16.905000  16.162000
H  14.294000  17.116000  16.297000
C  15.921000  15.036000  14.612000
H  16.850000  15.660000  14.678000
C  15.787000  13.984000  13.662000
H  16.598000  13.690000  13.058000
14
Lattice="15.917 0.0 0.0 0.0 15.917 0.0 0.0 0.0 15.917" Properties=species:S:1:pos:R:3 pbc="F F F" Time = 0.0 energy = 280.0
H  14.839000  12.354000  12.722000
C  14.782000  13.177000  13.461000
C  13.627000  13.561000  14.168000
H  12.715000  13.035000  14.187000
C  13.730000  14.706000  14.974000
H  12.807000  14.907000  15.525000
C  14.850000  15.525000  15.115000
N  14.702000  16.526000  16.051000
H  15.447000  17.228000  15.976000
H  13.745000  16.909000  16.112000
C  15.958000  15.154000  14.328000
H  16.871000  15.803000  14.315000
C  15.928000  14.017000  13.539000
H  16.696000  13.781000  12.835000
14
Lattice="15.917 0.0 0.0 0.0 15.917 0.0 0.0 0.0 15.917" Properties=species:S:1:pos:R:3 pbc="F F F" Time = 0.0 energy = 275.2
H  15.123000  12.317000  12.675000
C  15.052000  13.103000  13.412000
C  13.860000  13.175000  14.145000
H  13.117000  12.301000  14.155000
C  13.725000  14.184000  15.107000
H  12.747000  14.324000  15.614000
C  14.689000  15.192000  15.353000
N  14.675000  16.076000  16.533000
H  15.028000  16.948000  16.099000
H  13.666000  16.195000  16.667000
C  15.740000  15.215000  14.463000
H  16.565000  15.892000  14.550000
C  15.976000  14.160000  13.519000
H  17.017000  14.117000  13.084000
14
Lattice="15.917 0.0 0.0 0.0 15.917 0.0 0.0 0.0 15.917" Properties=species:S:1:pos:R:3 pbc="F F F" Time = 0.0 energy = 287.3
H  15.454000  12.814000  12.125000
C  15.310000  13.441000  13.029000
C  14.097000  13.259000  13.768000
H  13.423000  12.416000  13.425000
C  13.836000  14.098000  14.859000
H  12.916000  13.914000  15.457000
C  14.648000  15.160000  15.226000
N  14.485000  15.800000  16.431000
H  14.884000  16.733000  16.473000
H  13.588000  15.631000  16.898000
C  15.838000  15.318000  14.447000
H  16.535000  16.157000  14.703000
C  16.127000  14.537000  13.309000
H  17.043000  14.779000  12.756000
14
Lattice="15.917 0.0 0.0 0.0 15.917 0.0 0.0 0.0 15.917" Properties=species:S:1:pos:R:3 pbc="F F F" Time = 0.0 energy = 278.0
H  15.692000  13.347000  11.873000
C  15.386000  13.844000  12.838000
C  14.204000  13.587000  13.483000
H  13.704000  12.661000  13.303000
C  13.869000  14.285000  14.685000
H  13.008000  13.956000  15.307000
C  14.848000  15.204000  15.225000
N  14.559000  15.877000  16.499000
H  15.255000  16.658000  16.549000
H  13.611000  16.331000  16.477000
C  15.995000  15.498000  14.462000
H  16.732000  16.260000  14.851000
C  16.289000  14.787000  13.315000
H  17.242000  14.925000  12.784000
14
Lattice="15.917 0.0 0.0 0.0 15.917 0.0 0.0 0.0 15.917" Properties=species:S:1:pos:R:3 pbc="F F F" Time = 0.0 energy = 282.1
H  15.442000  13.530000  12.096000
C  15.386000  14.133000  13.037000
C  14.152000  14.273000  13.651000
H  13.253000  13.835000  13.235000
C  14.027000  15.048000  14.814000
H  13.062000  15.109000  15.255000
C  15.199000  15.493000  15.506000
N  15.040000  16.057000  16.796000
H  15.733000  16.805000  17.064000
H  14.105000  16.513000  16.864000
C  16.409000  15.515000  14.822000
H  17.147000  16.141000  15.238000
C  16.514000  14.762000  13.632000
H  17.525000  14.708000  13.118000
14
Lattice="15.917 0.0 0.0 0.0 15.917 0.0 0.0 0.0 15.917" Properties=species:S:1:pos:R:3 pbc="F F F" Time = 0.0 energy = 288.5
H  15.589000  13.795000  12.077000
C  15.374000  14.297000  13.047000
C  14.115000  14.513000  13.620000
H  13.240000  14.221000  12.986000
C  13.928000  15.143000  14.834000
H  12.964000  15.556000  15.030000
C  15.091000  15.684000  15.484000
N  14.879000  16.242000  16.781000
H  15.688000  16.868000  17.081000
H  13.979000  16.758000  16.855000
C  16.383000  15.393000  14.990000
H  17.261000  15.846000  15.406000
C  16.520000  14.759000  13.744000
H  17.543000  14.536000  13.431000
14
Lattice="15.917 0.0 0.0 0.0 15.917 0.0 0.0 0.0 15.917" Properties=species:S:1:pos:R:3 pbc="F F F" Time = 0.0 energy = 290.1
H  15.592000  13.697000  12.169000
C  15.371000  14.233000  13.106000
C  14.093000  14.627000  13.516000
H  13.224000  14.150000  12.981000
C  13.908000  15.341000  14.730000
H  12.933000  15.324000  15.241000
C  15.021000  15.653000  15.507000
N  14.835000  16.242000  16.776000
H  15.493000  17.041000  16.982000
H  13.855000  16.516000  17.001000
C  16.352000  15.494000  14.968000
H  17.255000  15.691000  15.564000
C  16.464000  14.720000  13.806000
H  17.446000  14.628000  13.414000
14
Lattice="15.917 0.0 0.0 0.0 15.917 0.0 0.0 0.0 15.917" Properties=species:S:1:pos:R:3 pbc="F F F" Time = 0.0 energy = 281.2
H  15.493000  13.542000  12.287000
C  15.390000  14.142000  13.222000
C  14.062000  14.219000  13.636000
H  13.245000  13.720000  13.127000
C  13.694000  15.044000  14.702000
H  12.716000  15.148000  15.085000
C  14.697000  15.773000  15.380000
N  14.475000  16.412000  16.614000
H  14.908000  17.359000  16.660000
H  13.476000  16.634000  16.674000
C  16.054000  15.695000  14.967000
H  16.725000  16.335000  15.521000
C  16.393000  14.921000  13.830000
H  17.424000  14.843000  13.405000
14
Lattice="15.917 0.0 0.0 0.0 15.917 0.0 0.0 0.0 15.917" Properties=species:S:1:pos:R:3 pbc="F F F" Time = 0.0 energy = 284.6
H  15.793000  13.496000  12.390000
C  15.393000  14.092000  13.192000
C  14.090000  14.139000  13.702000
H  13.367000  13.491000  13.189000
C  13.712000  15.007000  14.714000
H  12.658000  14.978000  15.067000
C  14.724000  15.776000  15.388000
N  14.422000  16.387000  16.601000
H  14.910000  17.215000  16.890000
H  13.493000  16.385000  17.017000
C  16.031000  15.725000  14.873000
H  16.805000  16.363000  15.214000
C  16.363000  14.867000  13.840000
H  17.388000  15.084000  13.397000
14
Lattice="15.917 0.0 0.0 0.0 15.917 0.0 0.0 0.0 15.917" Properties=species:S:1:pos:R:3 pbc="F F F" Time = 0.0 energy = 284.4
H  15.767000  13.532000  12.279000
C  15.458000  14.128000  13.099000
C  14.300000  13.719000  13.867000
H  13.531000  13.066000  13.407000
C  13.938000  14.417000  15.038000
H  12.922000  14.239000  15.526000
C  14.728000  15.447000  15.582000
N  14.453000  16.175000  16.762000
H  14.714000  17.164000  16.658000
H  13.472000  16.105000  17.074000
C  15.974000  15.691000  14.930000
H  16.763000  16.358000  15.304000
C  16.291000  15.043000  13.702000
H  17.328000  15.189000  13.302000
14
Lattice="15.917 0.0 0.0 0.0 15.917 0.0 0.0 0.0 15.917" Properties=species:S:1:pos:R:3 pbc="F F F" Time = 0.0 energy = 277.1
H  15.817000  13.637000  12.249000
C  15.440000  14.111000  13.200000
C  14.495000  13.533000  14.038000
H  13.802000  12.900000  13.521000
C  14.161000  14.102000  15.251000
H  13.241000  13.886000  15.739000
C  14.901000  15.282000  15.665000
N  14.454000  15.879000  16.896000
H  14.444000  16.914000  16.752000
H  13.459000  15.565000  17.020000
C  15.981000  15.720000  14.909000
H  16.616000  16.600000  15.185000
C  16.256000  15.091000  13.698000
H  17.107000  15.461000  13.194000
14
Lattice="15.917 0.0 0.0 0.0 15.917 0.0 0.0 0.0 15.917" Properties=species:S:1:pos:R:3 pbc="F F F" Time = 0.0 energy = 284.1
H  16.028000  13.533000  12.521000
C  15.775000  13.915000  13.465000
C  15.153000  13.047000  14.402000
H  14.921000  12.008000  14.046000
C  14.663000  13.560000  15.585000
H  14.193000  12.884000  16.371000
C  14.816000  14.934000  15.853000
N  14.359000  15.394000  17.058000
H  14.162000  16.404000  17.141000
H  13.402000  14.968000  17.176000
C  15.682000  15.729000  15.070000
H  15.862000  16.771000  15.199000
C  16.182000  15.143000  13.886000
H  16.778000  15.829000  13.202000
14
Lattice="15.917 0.0 0.0 0.0 15.917 0.0 0.0 0.0 15.917" Properties=species:S:1:pos:R:3 pbc="F F F" Time = 0.0 energy = 270.9
H  17.490000  13.072000  13.517000
C  16.707000  13.458000  14.111000
C  15.735000  12.640000  14.638000
H  15.940000  11.552000  14.628000
C  14.664000  13.141000  15.421000
H  14.143000  12.358000  16.049000
C  14.551000  14.568000  15.650000
N  13.641000  15.109000  16.599000
H  13.217000  16.009000  16.376000
H  12.914000  14.432000  16.759000
C  15.483000  15.335000  14.997000
H  15.565000  16.425000  15.053000
C  16.508000  14.850000  14.273000
H  17.293000  15.526000  13.784000
14
Lattice="15.917 0.0 0.0 0.0 15.917 0.0 0.0 0.0 15.917" Properties=species:S:1:pos:R:3 pbc="F F F" Time = 0.0 energy = 273.2
H  16.820000  12.194000  12.496000
C  16.195000  12.779000  13.242000
C  15.210000  12.178000  13.928000
H  15.039000  11.097000  13.893000
C  14.484000  12.912000  14.902000
H  13.796000  12.350000  15.533000
C  14.707000  14.325000  15.172000
N  13.905000  15.000000  16.104000
H  13.529000  15.925000  15.798000
H  13.112000  14.316000  16.159000
C  15.810000  14.843000  14.501000
H  16.071000  15.902000  14.490000
C  16.548000  14.117000  13.599000
H  17.376000  14.596000  13.127000
14
Lattice="15.917 0.0 0.0 0.0 15.917 0.0 0.0 0.0 15.917" Properties=species:S:1:pos:R:3 pbc="F F F" Time = 0.0 energy = 284.2
H  14.962000  12.684000  12.434000
C  14.651000  13.151000  13.372000
C  14.373000  12.468000  14.588000
H  14.392000  11.353000  14.517000
C  14.134000  13.210000  15.790000
H  13.738000  12.693000  16.722000
C  14.424000  14.562000  15.855000
N  14.369000  15.266000  17.098000
H  14.391000  16.274000  16.980000
H  13.511000  15.012000  17.623000
C  14.738000  15.269000  14.693000
H  14.913000  16.329000  14.674000
C  14.833000  14.559000  13.464000
H  15.109000  15.217000  12.551000
14
Lattice="15.917 0.0 0.0 0.0 15.917 0.0 0.0 0.0 15.917" Properties=species:S:1:pos:R:3 pbc="F F F" Time = 0.0 energy = 276.6
H  15.275000  12.259000  12.549000
C  14.993000  12.881000  13.398000
C  14.275000  12.279000  14.404000
H  14.059000  11.224000  14.252000
C  13.857000  13.066000  15.462000
H  13.273000  12.521000  16.153000
C  14.156000  14.431000  15.535000
N  13.785000  15.181000  16.697000
H  13.713000  16.200000  16.592000
H  12.828000  14.991000  17.155000
C  15.013000  14.974000  14.595000
H  15.344000  16.032000  14.662000
C  15.312000  14.261000  13.421000
H  15.865000  14.623000  12.596000
14
Lattice="15.917 0.0 0.0 0.0 15.917 0.0 0.0 0.0 15.917" Properties=species:S:1:pos:R:3 pbc="F F F" Time = 0.0 energy = 282.9
H  16.132000  12.228000  12.369000
C  15.674000  12.886000  13.136000
C  14.588000  12.371000  13.859000
H  14.239000  11.383000  13.487000
C  13.952000  12.960000  14.972000
H  13.056000  12.427000  15.257000
C  14.529000  14.178000  15.456000
N  13.991000  14.885000  16.535000
H  13.974000  15.879000  16.377000
H  13.026000  14.553000  16.835000
C  15.682000  14.665000  14.874000
H  16.199000  15.571000  15.338000
C  16.223000  14.086000  13.715000
H  17.088000  14.540000  13.216000
14
Lattice="15.917 0.0 0.0 0.0 15.917 0.0 0.0 0.0 15.917" Properties=species:S:1:pos:R:3 pbc="F F F" Time = 0.0 energy = 271.8
H  18.573000  14.481000  12.265000
C  17.703000  14.465000  12.917000
C  16.906000  13.362000  13.123000
H  17.199000  12.497000  12.533000
C  15.784000  13.407000  13.983000
H  15.229000  12.443000  14.110000
C  15.518000  14.628000  14.688000
N  14.434000  14.789000  15.608000
H  14.041000  15.783000  15.433000
H  13.699000  14.119000  15.421000
C  16.367000  15.702000  14.491000
H  16.193000  16.687000  14.971000
C  17.502000  15.576000  13.700000
H  18.111000  16.479000  13.715000
14
Lattice="15.917 0.0 0.0 0.0 15.917 0.0 0.0 0.0 15.917" Properties=species:S:1:pos:R:3 pbc="F F F" Time = 0.0 energy = 269.1
H  18.414000  13.826000  12.304000
C  17.609000  14.030000  13.031000
C  16.687000  13.020000  13.380000
H  16.621000  11.966000  13.179000
C  15.674000  13.336000  14.250000
H  14.889000  12.574000  14.481000
C  15.440000  14.604000  14.757000
N  14.375000  14.949000  15.683000
H  14.345000  15.985000  15.795000
H  13.404000  14.645000  15.316000
C  16.332000  15.613000  14.356000
H  16.009000  16.581000  14.724000
C  17.416000  15.369000  13.521000
H  18.168000  16.151000  13.265000
14
Lattice="15.917 0.0 0.0 0.0 15.917 0.0 0.0 0.0 15.917" Properties=species:S:1:pos:R:3 pbc="F F F" Time = 0.0 energy = 272.0
H  17.147000  12.730000  12.815000
C  16.455000  13.177000  13.495000
C  15.495000  12.355000  14.108000
H  15.311000  11.285000  13.932000
C  14.501000  12.984000  14.960000
H  13.806000  12.453000  15.542000
C  14.514000  14.325000  15.217000
N  13.598000  14.935000  16.203000
H  13.247000  15.815000  15.787000
H  12.772000  14.360000  16.234000
C  15.558000  15.053000  14.746000
H  15.616000  16.120000  15.095000
C  16.569000  14.510000  13.838000
H  17.287000  15.073000  13.256000
14
Lattice="15.917 0.0 0.0 0.0 15.917 0.0 0.0 0.0 15.917" Properties=species:S:1:pos:R:3 pbc="F F F" Time = 0.0 energy = 282.6
H  16.905000  13.307000  12.227000
C  16.343000  13.702000  13.064000
C  15.283000  12.986000  13.678000
H  14.958000  11.981000  13.290000
C  14.567000  13.561000  14.710000
H  13.572000  12.925000  14.911000
C  14.911000  14.880000  15.191000
N  14.323000  15.263000  16.421000
H  14.085000  16.254000  16.272000
H  13.385000  14.789000  16.537000
C  15.920000  15.633000  14.546000
H  16.243000  16.578000  14.854000
C  16.640000  15.007000  13.503000
H  17.421000  15.546000  12.954000
14
Lattice="15.917 0.0 0.0 0.0 15.917 0.0 0.0 0.0 15.917" Properties=species:S:1:pos:R:3 pbc="F F F" Time = 0.0 energy = 288.8
H  17.144000  13.366000  12.419000
C  16.630000  13.820000  13.299000
C  15.448000  13.241000  13.766000
H  15.147000  12.369000  13.200000
C  14.755000  13.759000  14.881000
H  13.847000  13.283000  15.293000
C  15.327000  14.843000  15.586000
N  14.806000  15.280000  16.784000
H  14.650000  16.282000  16.896000
H  13.942000  14.828000  17.058000
C  16.464000  15.497000  15.037000
H  16.894000  16.263000  15.706000
C  17.177000  14.969000  13.962000
H  18.170000  15.169000  13.633000
14
Lattice="15.917 0.0 0.0 0.0 15.917 0.0 0.0 0.0 15.917" Properties=species:S:1:pos:R:3 pbc="F F F" Time = 0.0 energy = 287.2
H  17.167000  13.370000  12.425000
C  16.624000  13.818000  13.306000
C  15.443000  13.242000  13.768000
H  15.153000  12.368000  13.171000
C  14.758000  13.757000  14.885000
H  13.872000  13.309000  15.290000
C  15.331000  14.842000  15.583000
N  14.809000  15.279000  16.795000
H  14.657000  16.268000  16.900000
H  13.932000  14.830000  17.064000
C  16.467000  15.497000  15.041000
H  16.875000  16.251000  15.715000
C  17.182000  14.963000  13.962000
H  18.166000  15.199000  13.633000
14
Lattice="15.917 0.0 0.0 0.0 15.917 0.0 0.0 0.0 15.917" Properties=species:S:1:pos:R:3 pbc="F F F" Time = 0.0 energy = 279.7
H  15.701000  12.232000  12.743000
C  15.355000  12.895000  13.536000
C  14.697000  12.356000  14.641000
H  14.389000  11.245000  14.614000
C  14.426000  13.040000  15.822000
H  13.900000  12.622000  16.676000
C  14.807000  14.410000  15.849000
N  14.588000  15.183000  17.046000
H  14.678000  16.189000  16.764000
H  13.672000  15.015000  17.516000
C  15.547000  14.965000  14.770000
H  15.884000  16.033000  14.738000
C  15.842000  14.226000  13.624000
H  16.427000  14.642000  12.783000
14
Lattice="15.917 0.0 0.0 0.0 15.917 0.0 0.0 0.0 15.917" Properties=species:S:1:pos:R:3 pbc="F F F" Time = 0.0 energy = 274.6
H  16.173000  13.132000  12.354000
C  15.845000  13.412000  13.398000
C  15.174000  12.582000  14.274000
H  14.945000  11.590000  13.937000
C  14.711000  13.127000  15.527000
H  14.235000  12.395000  16.211000
C  14.873000  14.448000  15.805000
N  14.350000  15.042000  16.999000
H  14.137000  15.995000  16.747000
H  13.564000  14.537000  17.409000
C  15.564000  15.283000  14.922000
H  15.781000  16.396000  15.142000
C  16.040000  14.743000  13.724000
H  16.530000  15.491000  13.065000
14
Lattice="15.917 0.0 0.0 0.0 15.917 0.0 0.0 0.0 15.917" Properties=species:S:1:pos:R:3 pbc="F F F" Time = 0.0 energy = 281.6
H  16.482000  13.186000  12.390000
C  15.986000  13.531000  13.356000
C  15.276000  12.697000  14.229000
H  15.128000  11.706000  13.936000
C  14.709000  13.212000  15.447000
H  14.233000  12.463000  16.167000
C  14.880000  14.547000  15.742000
N  14.424000  14.951000  17.045000
H  14.474000  15.962000  17.153000
H  13.523000  14.642000  17.417000
C  15.625000  15.397000  14.924000
H  15.930000  16.433000  15.195000
C  16.139000  14.860000  13.711000
H  16.704000  15.626000  13.088000
14
Lattice="15.917 0.0 0.0 0.0 15.917 0.0 0.0 0.0 15.917" Properties=species:S:1:pos:R:3 pbc="F F F" Time = 0.0 energy = 273.4
H  16.451000  13.300000  12.443000
C  16.018000  13.600000  13.363000
C  15.301000  12.727000  14.178000
H  15.283000  11.607000  13.925000
C  14.744000  13.252000  15.379000
H  14.266000  12.447000  15.931000
C  14.903000  14.586000  15.740000
N  14.586000  15.056000  17.076000
H  14.177000  15.985000  17.043000
H  13.816000  14.460000  17.413000
C  15.647000  15.412000  14.925000
H  15.802000  16.395000  15.323000
C  16.264000  14.911000  13.735000
H  16.936000  15.573000  13.205000
14
Lattice="15.917 0.0 0.0 0.0 15.917 0.0 0.0 0.0 15.917" Properties=species:S:1:pos:R:3 pbc="F F F" Time = 0.0 energy = 276.8
H  17.372000  13.758000  12.771000
C  16.787000  13.966000  13.637000
C  15.522000  13.350000  13.929000
H  15.275000  12.504000  13.183000
C  14.732000  13.746000  14.972000
H  13.893000  13.103000  15.108000
C  15.093000  14.899000  15.722000
N  14.487000  15.434000  16.856000
H  14.676000  16.457000  17.003000
H  13.479000  15.279000  16.933000
C  16.257000  15.568000  15.342000
H  16.367000  16.529000  15.945000
C  17.070000  15.161000  14.323000
H  17.876000  15.764000  14.098000
14
Lattice="15.917 0.0 0.0 0.0 15.917 0.0 0.0 0.0 15.917" Properties=species:S:1:pos:R:3 pbc="F F F" Time = 0.0 energy = 278.6
H  17.202000  13.971000  12.193000
C  16.774000  14.306000  13.122000
C  15.434000  14.094000  13.321000
H  14.875000  13.479000  12.537000
C  14.690000  14.482000  14.517000
H  13.613000  14.187000  14.686000
C  15.498000  15.219000  15.425000
N  15.050000  15.598000  16.754000
H  15.552000  16.527000  16.904000
H  14.056000  15.854000  16.739000
C  16.796000  15.531000  15.184000
H  17.258000  16.228000  15.955000
C  17.490000  15.105000  14.034000
H  18.455000  15.483000  13.811000
14
Lattice="15.917 0.0 0.0 0.0 15.917 0.0 0.0 0.0 15.917" Properties=species:S:1:pos:R:3 pbc="F F F" Time = 0.0 energy = 271.9
H  16.370000  14.195000  12.262000
C  15.938000  14.284000  13.284000
C  14.745000  13.796000  13.742000
H  14.174000  13.163000  13.055000
C  14.359000  14.107000  15.032000
H  13.375000  13.742000  15.373000
C  15.149000  14.857000  15.947000
N  14.651000  15.221000  17.209000
H  14.754000  16.205000  17.422000
H  13.653000  14.951000  17.265000
C  16.403000  15.248000  15.475000
H  17.069000  15.939000  16.153000
C  16.780000  15.015000  14.162000
H  17.610000  15.597000  13.838000
14
Lattice="15.917 0.0 0.0 0.0 15.917 0.0 0.0 0.0 15.917" Properties=species:S:1:pos:R:3 pbc="F F F" Time = 0.0 energy = 272.3
H  16.135000  14.170000  12.251000
C  15.935000  14.316000  13.297000
C  14.732000  13.760000  13.793000
H  14.130000  13.149000  13.083000
C  14.300000  14.080000  15.082000
H  13.310000  13.615000  15.422000
C  15.113000  14.823000  15.922000
N  14.669000  15.202000  17.225000
H  14.759000  16.221000  17.352000
H  13.765000  14.884000  17.435000
C  16.388000  15.248000  15.484000
H  16.993000  15.789000  16.200000
C  16.730000  15.037000  14.152000
H  17.648000  15.496000  13.773000
14
Lattice="15.917 0.0 0.0 0.0 15.917 0.0 0.0 0.0 15.917" Properties=species:S:1:pos:R:3 pbc="F F F" Time = 0.0 energy = 271.3
H  15.921000  13.917000  12.334000
C  15.656000  14.136000  13.392000
C  14.452000  13.659000  14.020000
H  13.743000  13.097000  13.393000
C  14.216000  13.995000  15.328000
H  13.243000  13.703000  15.755000
C  15.073000  14.797000  16.066000
N  14.858000  14.969000  17.485000
H  14.816000  16.032000  17.746000
H  13.870000  14.667000  17.661000
C  16.205000  15.368000  15.351000
H  16.913000  16.052000  15.992000
C  16.498000  15.019000  14.036000
H  17.395000  15.440000  13.641000
14
Lattice="15.917 0.0 0.0 0.0 15.917 0.0 0.0 0.0 15.917" Properties=species:S:1:pos:R:3 pbc="F F F" Time = 0.0 energy = 272.9
H  15.309000  13.345000  12.538000
C  15.168000  13.795000  13.505000
C  14.141000  13.371000  14.333000
H  13.557000  12.525000  14.047000
C  13.829000  14.020000  15.538000
H  13.119000  13.631000  16.234000
C  14.633000  15.211000  15.894000
N  14.379000  15.958000  17.080000
H  14.564000  16.992000  16.978000
H  13.407000  15.888000  17.310000
C  15.588000  15.600000  15.026000
H  16.044000  16.605000  15.242000
C  15.870000  14.941000  13.836000
H  16.617000  15.370000  13.151000
14
Lattice="15.917 0.0 0.0 0.0 15.917 0.0 0.0 0.0 15.917" Properties=species:S:1:pos:R:3 pbc="F F F" Time = 0.0 energy = 264.2
H  15.423000  13.258000  12.381000
C  15.156000  13.801000  13.319000
C  14.181000  13.352000  14.226000
H  13.678000  12.397000  14.029000
C  13.908000  14.044000  15.404000
H  13.116000  13.663000  16.078000
C  14.603000  15.124000  15.702000
N  14.486000  15.749000  17.001000
H  14.402000  16.773000  16.990000
H  13.518000  15.469000  17.381000
C  15.559000  15.636000  14.826000
H  16.113000  16.579000  15.141000
C  15.866000  14.940000  13.635000
H  16.695000  15.339000  13.081000
14
Lattice="15.917 0.0 0.0 0.0 15.917 0.0 0.0 0.0 15.917" Properties=species:S:1:pos:R:3 pbc="F F F" Time = 0.0 energy = 282.1
H  17.337000  12.369000  13.025000
C  16.761000  13.033000  13.693000
C  15.642000  12.523000  14.343000
H  15.246000  11.561000  14.084000
C  15.004000  13.366000  15.265000
H  14.174000  12.905000  15.852000
C  15.481000  14.671000  15.558000
N  14.974000  15.438000  16.675000
H  15.155000  16.471000  16.543000
H  13.939000  15.393000  16.774000
C  16.714000  15.106000  14.933000
H  17.046000  16.089000  15.301000
C  17.319000  14.321000  13.978000
H  18.135000  14.617000  13.355000
14
Lattice="15.917 0.0 0.0 0.0 15.917 0.0 0.0 0.0 15.917" Properties=species:S:1:pos:R:3 pbc="F F F" Time = 0.0 energy = 276.1
H  17.778000  12.379000  13.312000
C  17.148000  13.071000  13.960000
C  16.057000  12.559000  14.615000
H  15.755000  11.536000  14.713000
C  15.352000  13.370000  15.543000
H  14.549000  12.968000  16.178000
C  15.758000  14.657000  15.822000
N  15.279000  15.350000  16.944000
H  15.546000  16.320000  16.893000
H  14.242000  15.352000  16.968000
C  16.709000  15.256000  15.021000
H  16.922000  16.307000  15.103000
C  17.390000  14.464000  14.052000
H  18.165000  14.881000  13.391000
14
Lattice="15.917 0.0 0.0 0.0 15.917 0.0 0.0 0.0 15.917" Properties=species:S:1:pos:R:3 pbc="F F F" Time = 0.0 energy = 283.3
H  16.929000  13.444000  13.029000
C  16.279000  13.780000  13.913000
C  15.659000  12.770000  14.699000
H  15.843000  11.741000  14.550000
C  14.928000  13.209000  15.813000
H  14.637000  12.353000  16.420000
C  14.728000  14.573000  16.094000
N  13.885000  14.960000  17.191000
H  13.543000  15.905000  17.110000
H  13.027000  14.405000  17.273000
C  15.427000  15.544000  15.299000
H  15.144000  16.554000  15.575000
C  16.074000  15.141000  14.151000
H  16.551000  15.857000  13.408000
14
Lattice="15.917 0.0 0.0 0.0 15.917 0.0 0.0 0.0 15.917" Properties=species:S:1:pos:R:3 pbc="F F F" Time = 0.0 energy = 272.0
H  15.281000  13.438000  12.261000
C  15.015000  13.796000  13.236000
C  13.980000  13.368000  14.061000
H  13.453000  12.415000  13.735000
C  13.699000  13.939000  15.270000
H  12.936000  13.533000  15.956000
C  14.400000  15.016000  15.712000
N  14.056000  15.540000  16.952000
H  14.153000  16.520000  17.009000
H  13.117000  15.208000  17.254000
C  15.438000  15.511000  14.905000
H  15.905000  16.534000  15.196000
C  15.707000  14.945000  13.667000
H  16.392000  15.508000  13.080000
14
Lattice="15.917 0.0 0.0 0.0 15.917 0.0 0.0 0.0 15.917" Properties=species:S:1:pos:R:3 pbc="F F F" Time = 0.0 energy = 283.2
H  17.165000  13.596000  12.945000
C  16.533000  14.000000  13.716000
C  15.497000  13.155000  14.204000
H  15.522000  12.111000  13.838000
C  14.647000  13.651000  15.225000
H  13.878000  13.038000  15.581000
C  14.914000  14.950000  15.717000
N  14.114000  15.490000  16.763000
H  13.972000  16.510000  16.581000
H  13.258000  14.994000  17.059000
C  15.962000  15.741000  15.214000
H  16.095000  16.799000  15.577000
C  16.778000  15.223000  14.248000
H  17.663000  15.899000  14.010000
14
Lattice="15.917 0.0 0.0 0.0 15.917 0.0 0.0 0.0 15.917" Properties=species:S:1:pos:R:3 pbc="F F F" Time = 0.0 energy = 279.1
H  17.289000  13.348000  13.063000
C  16.536000  13.753000  13.728000
C  15.535000  12.979000  14.321000
H  15.449000  11.939000  14.037000
C  14.671000  13.584000  15.217000
H  13.831000  12.925000  15.550000
C  14.887000  14.856000  15.668000
N  14.174000  15.340000  16.812000
H  14.006000  16.354000  16.742000
H  13.284000  14.858000  16.898000
C  15.865000  15.677000  15.034000
H  15.801000  16.718000  15.312000
C  16.726000  15.107000  14.046000
H  17.536000  15.687000  13.591000
14
Lattice="15.917 0.0 0.0 0.0 15.917 0.0 0.0 0.0 15.917" Properties=species:S:1:pos:R:3 pbc="F F F" Time = 0.0 energy = 296.1
H  16.660000  13.123000  12.590000
C  16.340000  13.533000  13.523000
C  15.490000  12.692000  14.248000
H  15.163000  11.697000  13.939000
C  14.813000  13.218000  15.389000
H  14.203000  12.624000  16.000000
C  15.023000  14.577000  15.694000
N  14.326000  15.135000  16.818000
H  14.136000  16.132000  16.824000
H  13.427000  14.661000  17.054000
C  16.007000  15.407000  15.047000
H  16.138000  16.468000  15.360000
C  16.603000  14.858000  13.886000
H  17.323000  15.341000  13.168000
14
Lattice="15.917 0.0 0.0 0.0 15.917 0.0 0.0 0.0 15.917" Properties=species:S:1:pos:R:3 pbc="F F F" Time = 0.0 energy = 274.7
H  16.489000  12.767000  12.927000
C  16.244000  13.173000  13.891000
C  15.553000  12.356000  14.769000
H  15.471000  11.218000  14.584000
C  14.939000  12.868000  15.888000
H  14.467000  12.258000  16.681000
C  14.852000  14.278000  16.057000
N  14.192000  14.786000  17.216000
H  13.884000  15.799000  17.147000
H  13.423000  14.173000  17.514000
C  15.441000  15.092000  15.144000
H  15.372000  16.163000  15.219000
C  16.068000  14.568000  14.002000
H  16.420000  15.203000  13.191000
14
Lattice="15.917 0.0 0.0 0.0 15.917 0.0 0.0 0.0 15.917" Properties=species:S:1:pos:R:3 pbc="F F F" Time = 0.0 energy = 271.7
H  16.447000  12.996000  13.066000
C  16.023000  13.576000  13.877000
C  15.089000  12.886000  14.691000
H  14.634000  11.885000  14.419000
C  14.453000  13.546000  15.738000
H  13.663000  13.010000  16.273000
C  14.874000  14.849000  16.108000
N  14.352000  15.442000  17.302000
H  14.204000  16.459000  17.204000
H  13.472000  15.027000  17.565000
C  15.754000  15.518000  15.299000
H  15.987000  16.513000  15.528000
C  16.373000  14.870000  14.235000
H  17.111000  15.337000  13.562000
14
Lattice="15.917 0.0 0.0 0.0 15.917 0.0 0.0 0.0 15.917" Properties=species:S:1:pos:R:3 pbc="F F F" Time = 0.0 energy = 279.5
H  17.420000  14.263000  12.568000
C  16.791000  14.541000  13.415000
C  15.512000  13.878000  13.643000
H  15.128000  13.164000  12.887000
C  14.680000  14.201000  14.741000
H  13.646000  13.847000  14.845000
C  15.118000  15.183000  15.653000
N  14.446000  15.442000  16.934000
H  14.596000  16.427000  17.225000
H  13.456000  15.160000  17.032000
C  16.279000  15.902000  15.415000
H  16.585000  16.737000  16.036000
C  17.064000  15.563000  14.267000
H  18.054000  16.091000  14.104000
14
Lattice="15.917 0.0 0.0 0.0 15.917 0.0 0.0 0.0 15.917" Properties=species:S:1:pos:R:3 pbc="F F F" Time = 0.0 energy = 279.9
H  15.870000  14.156000  12.370000
C  15.561000  14.425000  13.401000
C  14.584000  13.673000  14.072000
H  14.029000  12.894000  13.599000
C  14.218000  13.896000  15.404000
H  13.348000  13.385000  15.828000
C  14.836000  15.028000  16.080000
N  14.444000  15.184000  17.401000
H  14.369000  16.198000  17.660000
H  13.506000  14.784000  17.561000
C  15.849000  15.703000  15.431000
H  16.346000  16.519000  16.063000
C  16.214000  15.428000  14.114000
H  17.022000  16.048000  13.704000
14
Lattice="15.917 0.0 0.0 0.0 15.917 0.0 0.0 0.0 15.917" Properties=species:S:1:pos:R:3 pbc="F F F" Time = 0.0 energy = 279.3
H  15.663000  13.779000  12.536000
C  15.341000  14.189000  13.445000
C  14.384000  13.475000  14.204000
H  13.965000  12.519000  13.830000
C  14.143000  13.932000  15.490000
H  13.388000  13.415000  16.099000
C  14.620000  15.189000  15.986000
N  14.373000  15.626000  17.324000
H  14.516000  16.624000  17.565000
H  13.450000  15.279000  17.680000
C  15.578000  15.829000  15.196000
H  15.943000  16.760000  15.519000
C  15.955000  15.341000  13.988000
H  16.558000  15.875000  13.291000
14
Lattice="15.917 0.0 0.0 0.0 15.917 0.0 0.0 0.0 15.917" Properties=species:S:1:pos:R:3 pbc="F F F" Time = 0.0 energy = 269.0
H  14.784000  12.657000  12.368000
C  14.882000  13.258000  13.300000
C  13.905000  12.947000  14.260000
H  13.199000  12.068000  14.320000
C  13.725000  13.759000  15.343000
H  13.089000  13.443000  16.141000
C  14.419000  14.940000  15.452000