17
Lattice="12.8 0.0 0.0 0.0 12.8 0.0 0.0 0.0 12.8" Properties=species:S:1:pos:R:3 pbc="F F F" Time = 0.0 energy = 276.2
H  5.874000  10.883000  7.437000
C  5.410000  9.973000  7.152000
C  4.191000  10.008000  6.492000
H  3.500000  10.866000  6.565000
C  3.599000  8.823000  6.047000
H  2.631000  8.882000  5.640000
C  4.378000  7.624000  6.002000
O  4.040000  6.368000  5.527000
C  5.708000  7.609000  6.549000
C  6.183000  8.793000  7.092000
H  7.072000  8.781000  7.643000
O  6.470000  6.470000  6.470000
H  7.425000  6.654000  6.640000
C  2.745000  6.120000  4.903000
H  2.506000  6.745000  4.014000
H  1.878000  6.165000  5.591000
H  2.759000  5.049000  4.579000
17
Lattice="12.8 0.0 0.0 0.0 12.8 0.0 0.0 0.0 12.8" Properties=species:S:1:pos:R:3 pbc="F F F" Time = 0.0 energy = 286.4
H  6.294000  10.925000  7.210000
C  5.741000  10.032000  6.956000
C  4.398000  10.095000  6.710000
H  3.889000  11.060000  6.750000
C  3.711000  8.875000  6.359000
H  2.655000  8.824000  6.163000
C  4.487000  7.754000  6.062000
O  3.904000  6.702000  5.351000
C  5.834000  7.693000  6.487000
C  6.424000  8.791000  7.119000
H  7.453000  8.745000  7.477000
O  6.470000  6.470000  6.470000
H  7.423000  6.534000  6.292000
C  2.684000  6.979000  4.504000
H  2.882000  7.787000  3.769000
H  1.867000  7.266000  5.197000
H  2.543000  6.017000  3.979000
17
Lattice="12.8 0.0 0.0 0.0 12.8 0.0 0.0 0.0 12.8" Properties=species:S:1:pos:R:3 pbc="F F F" Time = 0.0 energy = 280.4
H  6.838000  10.586000  8.215000
C  6.184000  9.771000  7.931000
C  4.905000  10.165000  7.490000
H  4.535000  11.183000  7.605000
C  4.052000  9.131000  6.990000
H  3.041000  9.371000  6.592000
C  4.567000  7.861000  6.792000
O  3.947000  6.808000  6.088000
C  5.953000  7.552000  7.056000
C  6.748000  8.521000  7.646000
H  7.792000  8.258000  7.902000
O  6.470000  6.470000  6.470000
H  7.451000  6.666000  6.305000
C  2.859000  7.074000  5.191000
H  2.978000  8.078000  4.687000
H  1.943000  7.023000  5.827000
H  2.876000  6.232000  4.458000
17
Lattice="12.8 0.0 0.0 0.0 12.8 0.0 0.0 0.0 12.8" Properties=species:S:1:pos:R:3 pbc="F F F" Time = 0.0 energy = 283.5
H  6.776000  10.663000  8.487000
C  6.195000  9.899000  7.986000
C  4.860000  10.149000  7.709000
H  4.272000  10.939000  8.219000
C  4.076000  9.243000  6.985000
H  3.063000  9.499000  6.812000
C  4.563000  8.008000  6.510000
O  3.773000  7.022000  6.012000
C  5.941000  7.699000  6.827000
C  6.771000  8.669000  7.445000
H  7.748000  8.383000  7.669000
O  6.470000  6.470000  6.470000
H  7.468000  6.534000  6.373000
C  2.524000  7.379000  5.470000
H  2.598000  7.972000  4.548000
H  1.982000  7.931000  6.237000
H  2.022000  6.415000  5.177000
17
Lattice="12.8 0.0 0.0 0.0 12.8 0.0 0.0 0.0 12.8" Properties=species:S:1:pos:R:3 pbc="F F F" Time = 0.0 energy = 276.7
H  6.740000  10.392000  8.825000
C  6.155000  9.776000  8.164000
C  4.880000  10.156000  7.794000
H  4.530000  11.165000  7.887000
C  4.068000  9.274000  7.049000
H  3.016000  9.603000  6.835000
C  4.572000  8.039000  6.670000
O  3.878000  7.076000  5.988000
C  5.927000  7.695000  6.887000
C  6.689000  8.542000  7.722000
H  7.787000  8.319000  7.889000
O  6.470000  6.470000  6.470000
H  7.525000  6.322000  6.695000
C  2.638000  7.361000  5.326000
H  2.799000  7.743000  4.295000
H  2.001000  8.121000  5.870000
H  2.079000  6.412000  5.215000
17
Lattice="12.8 0.0 0.0 0.0 12.8 0.0 0.0 0.0 12.8" Properties=species:S:1:pos:R:3 pbc="F F F" Time = 0.0 energy = 280.2
H  6.631000  10.353000  8.905000
C  6.119000  9.685000  8.244000
C  4.709000  9.869000  8.064000
H  4.221000  10.780000  8.389000
C  4.039000  8.992000  7.197000
H  3.007000  9.110000  6.952000
C  4.549000  7.752000  6.845000
O  3.842000  6.724000  6.286000
C  5.958000  7.564000  7.071000
C  6.708000  8.490000  7.790000
H  7.800000  8.316000  7.896000
O  6.470000  6.470000  6.470000
H  7.425000  6.308000  6.720000
C  2.750000  7.151000  5.460000
H  3.159000  7.675000  4.551000
H  2.033000  7.859000  5.957000
H  2.211000  6.290000  5.089000
17
Lattice="12.8 0.0 0.0 0.0 12.8 0.0 0.0 0.0 12.8" Properties=species:S:1:pos:R:3 pbc="F F F" Time = 0.0 energy = 284.8
H  6.519000  10.701000  8.565000
C  5.967000  9.865000  8.187000
C  4.587000  9.822000  8.171000
H  3.931000  10.576000  8.584000
C  3.867000  8.807000  7.511000
H  2.793000  8.890000  7.445000
C  4.551000  7.683000  6.977000
O  3.892000  6.698000  6.290000
C  5.929000  7.587000  7.119000
C  6.674000  8.685000  7.728000
H  7.789000  8.746000  7.741000
O  6.470000  6.470000  6.470000
H  7.476000  6.354000  6.731000
C  2.915000  6.913000  5.326000
H  2.979000  7.865000  4.745000
H  1.898000  6.829000  5.786000
H  3.057000  6.058000  4.682000
17
Lattice="12.8 0.0 0.0 0.0 12.8 0.0 0.0 0.0 12.8" Properties=species:S:1:pos:R:3 pbc="F F F" Time = 0.0 energy = 288.1
H  5.913000  10.603000  8.494000
C  5.621000  9.826000  7.704000
C  4.406000  10.005000  7.011000
H  3.759000  10.906000  7.250000
C  3.849000  9.026000  6.165000
H  2.837000  9.219000  5.769000
C  4.555000  7.834000  5.873000
O  4.164000  6.779000  5.094000
C  5.815000  7.665000  6.537000
C  6.404000  8.709000  7.340000
H  7.367000  8.484000  7.746000
O  6.470000  6.470000  6.470000
H  7.450000  6.560000  6.671000
C  2.812000  6.701000  4.748000
H  2.508000  7.571000  4.100000
H  2.281000  6.662000  5.725000
H  2.718000  5.760000  4.210000
17
Lattice="12.8 0.0 0.0 0.0 12.8 0.0 0.0 0.0 12.8" Properties=species:S:1:pos:R:3 pbc="F F F" Time = 0.0 energy = 272.1
H  6.881000  10.766000  7.193000
C  6.222000  10.075000  6.760000
C  5.076000  10.398000  5.987000
H  4.899000  11.411000  5.767000
C  4.333000  9.335000  5.449000
H  3.498000  9.598000  4.803000
C  4.870000  8.046000  5.498000
O  4.428000  7.031000  4.648000
C  6.006000  7.766000  6.271000
C  6.640000  8.798000  6.911000
H  7.553000  8.603000  7.483000
O  6.470000  6.470000  6.470000
H  7.485000  6.428000  6.492000
C  3.789000  7.490000  3.393000
H  4.362000  8.283000  2.899000
H  2.750000  7.781000  3.546000
H  3.755000  6.584000  2.722000
17
Lattice="12.8 0.0 0.0 0.0 12.8 0.0 0.0 0.0 12.8" Properties=species:S:1:pos:R:3 pbc="F F F" Time = 0.0 energy = 275.8
H  6.997000  10.900000  7.354000
C  6.461000  10.141000  6.793000
C  5.332000  10.559000  6.020000
H  4.989000  11.619000  5.952000
C  4.796000  9.552000  5.166000
H  3.993000  9.736000  4.406000
C  5.238000  8.234000  5.300000
O  4.731000  7.199000  4.556000
C  6.223000  7.835000  6.241000
C  6.849000  8.830000  6.953000
H  7.776000  8.644000  7.541000
O  6.470000  6.470000  6.470000
H  7.487000  6.472000  6.312000
C  4.077000  7.553000  3.347000
H  4.710000  8.252000  2.760000
H  3.101000  8.006000  3.574000
H  3.978000  6.584000  2.828000
17
Lattice="12.8 0.0 0.0 0.0 12.8 0.0 0.0 0.0 12.8" Properties=species:S:1:pos:R:3 pbc="F F F" Time = 0.0 energy = 274.2
H  6.639000  10.838000  7.932000
C  6.174000  10.087000  7.288000
C  5.321000  10.405000  6.237000
H  5.175000  11.478000  6.055000
C  4.793000  9.496000  5.344000
H  4.115000  9.919000  4.564000
C  5.079000  8.142000  5.536000
O  4.610000  7.108000  4.760000
C  5.982000  7.761000  6.510000
C  6.371000  8.692000  7.496000
H  7.065000  8.171000  8.217000
O  6.470000  6.470000  6.470000
H  7.470000  6.592000  6.456000
C  3.701000  7.361000  3.648000
H  4.228000  7.965000  2.892000
H  2.770000  7.832000  3.978000
H  3.426000  6.356000  3.250000
17
Lattice="12.8 0.0 0.0 0.0 12.8 0.0 0.0 0.0 12.8" Properties=species:S:1:pos:R:3 pbc="F F F" Time = 0.0 energy = 280.3
H  5.295000  10.818000  7.598000
C  4.925000  9.812000  7.291000
C  3.572000  9.628000  6.889000
H  2.870000  10.384000  7.263000
C  3.336000  8.426000  6.220000
H  2.434000  8.252000  5.601000
C  4.295000  7.419000  6.039000
O  4.033000  6.194000  5.472000
C  5.565000  7.517000  6.582000
C  5.903000  8.754000  7.129000
H  6.946000  8.938000  7.491000
O  6.470000  6.470000  6.470000
H  7.413000  6.734000  6.793000
C  3.054000  6.246000  4.440000
H  3.343000  6.981000  3.684000
H  2.059000  6.500000  4.814000
H  3.070000  5.220000  4.013000
17
Lattice="12.8 0.0 0.0 0.0 12.8 0.0 0.0 0.0 12.8" Properties=species:S:1:pos:R:3 pbc="F F F" Time = 0.0 energy = 272.3
H  5.970000  10.947000  7.085000
C  5.546000  10.101000  6.596000
C  4.459000  10.064000  5.702000
H  4.018000  10.970000  5.280000
C  3.968000  8.875000  5.241000
H  3.035000  8.829000  4.714000
C  4.548000  7.653000  5.566000
O  4.174000  6.461000  4.928000
C  5.791000  7.659000  6.355000
C  6.202000  8.870000  6.857000
H  7.148000  8.974000  7.410000
O  6.470000  6.470000  6.470000
H  7.431000  6.618000  6.580000
C  3.107000  6.629000  3.942000
H  3.362000  7.381000  3.172000
H  2.167000  6.930000  4.457000
H  2.941000  5.678000  3.479000
17
Lattice="12.8 0.0 0.0 0.0 12.8 0.0 0.0 0.0 12.8" Properties=species:S:1:pos:R:3 pbc="F F F" Time = 0.0 energy = 273.3
H  4.835000  10.127000  8.669000
C  4.805000  9.568000  7.755000
C  3.791000  9.693000  6.764000
H  3.169000  10.535000  6.822000
C  3.691000  8.799000  5.708000
H  2.993000  9.004000  4.915000
C  4.614000  7.756000  5.523000
O  4.687000  6.897000  4.413000
C  5.597000  7.558000  6.476000
C  5.698000  8.455000  7.590000
H  6.469000  8.228000  8.333000
O  6.470000  6.470000  6.470000
H  7.460000  6.769000  6.509000
C  3.397000  6.524000  3.891000
H  2.902000  7.250000  3.228000
H  2.756000  6.330000  4.770000
H  3.463000  5.565000  3.374000
17
Lattice="12.8 0.0 0.0 0.0 12.8 0.0 0.0 0.0 12.8" Properties=species:S:1:pos:R:3 pbc="F F F" Time = 0.0 energy = 280.1
H  5.756000  10.488000  8.555000
C  5.649000  9.838000  7.646000
C  4.566000  10.059000  6.819000
H  4.001000  10.966000  7.111000
C  4.088000  9.165000  5.905000
H  3.297000  9.440000  5.207000
C  4.726000  7.933000  5.906000
O  4.390000  6.823000  5.199000
C  5.876000  7.667000  6.653000
C  6.385000  8.621000  7.556000
H  7.155000  8.323000  8.257000
O  6.470000  6.470000  6.470000
H  7.464000  6.667000  6.493000
C  3.254000  7.037000  4.262000
H  3.561000  7.698000  3.435000
H  2.342000  7.407000  4.786000
H  3.026000  6.048000  3.877000
17
Lattice="12.8 0.0 0.0 0.0 12.8 0.0 0.0 0.0 12.8" Properties=species:S:1:pos:R:3 pbc="F F F" Time = 0.0 energy = 273.6
H  6.007000  10.722000  7.995000
C  5.448000  9.951000  7.418000
C  4.327000  10.126000  6.603000
H  3.712000  11.063000  6.562000
C  3.930000  9.066000  5.762000
H  3.046000  9.130000  5.110000
C  4.709000  7.908000  5.633000
O  4.421000  6.871000  4.770000
C  5.801000  7.666000  6.517000
C  6.162000  8.734000  7.347000
H  7.130000  8.665000  7.845000
O  6.470000  6.470000  6.470000
H  7.416000  6.587000  6.546000
C  3.001000  6.620000  4.469000
H  2.480000  7.443000  3.952000
H  2.447000  6.483000  5.412000
H  2.970000  5.763000  3.819000
17
Lattice="12.8 0.0 0.0 0.0 12.8 0.0 0.0 0.0 12.8" Properties=species:S:1:pos:R:3 pbc="F F F" Time = 0.0 energy = 274.4
H  6.030000  10.708000  7.983000
C  5.437000  9.960000  7.420000
C  4.314000  10.119000  6.606000
H  3.723000  11.048000  6.550000
C  3.931000  9.058000  5.767000
H  3.059000  9.148000  5.126000
C  4.708000  7.889000  5.640000
O  4.417000  6.856000  4.766000
C  5.805000  7.655000  6.511000
C  6.161000  8.728000  7.352000
H  7.116000  8.660000  7.846000
O  6.470000  6.470000  6.470000
H  7.419000  6.602000  6.543000
C  3.003000  6.610000  4.470000
H  2.488000  7.428000  3.955000
H  2.460000  6.464000  5.417000
H  2.982000  5.755000  3.822000
17
Lattice="12.8 0.0 0.0 0.0 12.8 0.0 0.0 0.0 12.8" Properties=species:S:1:pos:R:3 pbc="F F F" Time = 0.0 energy = 284.0
H  5.360000  10.505000  8.509000
C  5.205000  9.704000  7.757000
C  3.949000  9.683000  7.073000
H  3.265000  10.486000  7.179000
C  3.547000  8.615000  6.254000
H  2.755000  8.659000  5.502000
C  4.359000  7.473000  6.052000
O  4.016000  6.286000  5.439000
C  5.625000  7.545000  6.721000
C  6.007000  8.559000  7.614000
H  6.949000  8.527000  8.159000
O  6.470000  6.470000  6.470000
H  7.418000  6.726000  6.734000
C  2.646000  6.164000  4.984000
H  2.357000  6.897000  4.211000
H  1.965000  6.290000  5.835000
H  2.511000  5.164000  4.555000
17
Lattice="12.8 0.0 0.0 0.0 12.8 0.0 0.0 0.0 12.8" Properties=species:S:1:pos:R:3 pbc="F F F" Time = 0.0 energy = 271.5
H  5.170000  10.624000  8.049000
C  5.012000  9.722000  7.431000
C  3.732000  9.543000  6.916000
H  2.968000  10.238000  7.163000
C  3.405000  8.439000  6.151000
H  2.431000  8.399000  5.632000
C  4.377000  7.430000  5.915000
O  4.151000  6.230000  5.246000
C  5.640000  7.548000  6.569000
C  5.944000  8.691000  7.265000
H  6.959000  8.803000  7.619000
O  6.470000  6.470000  6.470000
H  7.384000  6.659000  6.766000
C  2.774000  6.047000  4.757000
H  2.334000  6.865000  4.174000
H  2.061000  5.849000  5.593000
H  2.811000  5.155000  4.112000
17
Lattice="12.8 0.0 0.0 0.0 12.8 0.0 0.0 0.0 12.8" Properties=species:S:1:pos:R:3 pbc="F F F" Time = 0.0 energy = 278.1
H  5.426000  10.527000  8.254000
C  5.071000  9.590000  7.787000
C  3.794000  9.555000  7.196000
H  3.102000  10.328000  7.416000
C  3.439000  8.458000  6.367000
H  2.383000  8.322000  6.108000
C  4.331000  7.398000  6.220000
O  4.044000  6.176000  5.627000
C  5.619000  7.482000  6.778000
C  5.999000  8.589000  7.542000
H  6.966000  8.565000  8.023000
O  6.470000  6.470000  6.470000
H  7.430000  6.721000  6.765000
C  2.676000  6.029000  5.017000
H  2.505000  6.601000  4.104000
H  1.920000  6.254000  5.797000
H  2.677000  4.982000  4.698000
17
Lattice="12.8 0.0 0.0 0.0 12.8 0.0 0.0 0.0 12.8" Properties=species:S:1:pos:R:3 pbc="F F F" Time = 0.0 energy = 273.3
H  5.390000  10.530000  8.257000
C  5.089000  9.633000  7.725000
C  3.818000  9.583000  7.183000
H  3.064000  10.340000  7.481000
C  3.480000  8.505000  6.338000
H  2.438000  8.435000  5.995000
C  4.342000  7.427000  6.183000
O  3.998000  6.203000  5.584000
C  5.652000  7.509000  6.703000
C  6.043000  8.597000  7.480000
H  7.035000  8.587000  7.984000
O  6.470000  6.470000  6.470000
H  7.412000  6.779000  6.709000
C  2.715000  6.069000  4.991000
H  2.656000  6.720000  4.095000
H  1.975000  6.327000  5.759000
H  2.619000  4.999000  4.751000
17
Lattice="12.8 0.0 0.0 0.0 12.8 0.0 0.0 0.0 12.8" Properties=species:S:1:pos:R:3 pbc="F F F" Time = 0.0 energy = 278.8
H  5.462000  10.661000  8.155000
C  5.216000  9.784000  7.518000
C  3.934000  9.771000  6.963000
H  3.252000  10.586000  6.994000
C  3.462000  8.604000  6.370000
H  2.466000  8.610000  5.935000
C  4.310000  7.499000  6.150000
O  3.873000  6.383000  5.456000
C  5.628000  7.521000  6.690000
C  6.060000  8.660000  7.417000
H  7.094000  8.757000  7.703000
O  6.470000  6.470000  6.470000
H  7.437000  6.625000  6.682000
C  2.570000  6.346000  4.964000
H  2.237000  7.241000  4.442000
H  1.875000  6.136000  5.807000
H  2.533000  5.452000  4.335000
17
Lattice="12.8 0.0 0.0 0.0 12.8 0.0 0.0 0.0 12.8" Properties=species:S:1:pos:R:3 pbc="F F F" Time = 0.0 energy = 279.2
H  5.545000  10.725000  8.112000
C  5.247000  9.832000  7.612000
C  3.962000  9.795000  7.099000
H  3.218000  10.618000  7.180000
C  3.533000  8.664000  6.340000
H  2.490000  8.712000  6.000000
C  4.373000  7.566000  6.195000
O  4.025000  6.357000  5.640000
C  5.713000  7.586000  6.666000
C  6.112000  8.715000  7.454000
H  7.187000  8.815000  7.728000
O  6.470000  6.470000  6.470000
H  7.473000  6.593000  6.686000
C  2.734000  6.271000  5.125000
H  2.486000  7.158000  4.493000
H  2.069000  6.222000  5.997000
H  2.727000  5.358000  4.514000
17
Lattice="12.8 0.0 0.0 0.0 12.8 0.0 0.0 0.0 12.8" Properties=species:S:1:pos:R:3 pbc="F F F" Time = 0.0 energy = 278.5
H  6.229000  10.870000  7.868000
C  5.771000  9.969000  7.345000
C  4.564000  10.160000  6.629000
H  4.031000  11.111000  6.601000
C  3.926000  9.078000  5.997000
H  2.913000  9.163000  5.567000
C  4.643000  7.888000  5.880000
O  4.082000  6.752000  5.219000
C  5.864000  7.698000  6.529000
C  6.481000  8.740000  7.242000
H  7.432000  8.549000  7.770000
O  6.470000  6.470000  6.470000
H  7.442000  6.679000  6.654000
C  2.624000  6.737000  5.263000
H  2.165000  7.450000  4.518000
H  2.302000  6.967000  6.317000
H  2.312000  5.690000  5.034000
17
Lattice="12.8 0.0 0.0 0.0 12.8 0.0 0.0 0.0 12.8" Properties=species:S:1:pos:R:3 pbc="F F F" Time = 0.0 energy = 280.1
H  5.836000  10.561000  8.381000
C  5.409000  9.809000  7.714000
C  4.158000  9.937000  7.086000
H  3.712000  10.890000  6.981000
C  3.681000  8.868000  6.269000
H  2.790000  9.003000  5.652000
C  4.451000  7.700000  6.083000
O  4.031000  6.598000  5.371000
C  5.770000  7.644000  6.604000
C  6.172000  8.662000  7.481000
H  7.112000  8.574000  8.010000
O  6.470000  6.470000  6.470000
H  7.411000  6.781000  6.752000
C  2.683000  6.645000  4.760000
H  2.531000  7.470000  4.095000
H  1.866000  6.674000  5.498000
H  2.602000  5.711000  4.216000
17
Lattice="12.8 0.0 0.0 0.0 12.8 0.0 0.0 0.0 12.8" Properties=species:S:1:pos:R:3 pbc="F F F" Time = 0.0 energy = 278.1
H  5.641000  10.517000  8.322000
C  5.287000  9.647000  7.755000
C  4.075000  9.822000  7.026000
H  3.435000  10.650000  7.320000
C  3.547000  8.776000  6.238000
H  2.493000  8.861000  5.950000
C  4.316000  7.640000  6.081000
O  3.865000  6.495000  5.383000
C  5.628000  7.543000  6.712000
C  6.105000  8.551000  7.517000
H  7.120000  8.505000  7.870000
O  6.470000  6.470000  6.470000
H  7.457000  6.736000  6.592000
C  2.574000  6.598000  4.739000
H  2.630000  7.403000  4.017000
H  1.821000  6.815000  5.529000
H  2.402000  5.638000  4.228000
17
Lattice="12.8 0.0 0.0 0.0 12.8 0.0 0.0 0.0 12.8" Properties=species:S:1:pos:R:3 pbc="F F F" Time = 0.0 energy = 267.6
H  5.328000  10.565000  8.205000
C  5.022000  9.684000  7.681000
C  3.806000  9.626000  6.990000
H  3.091000  10.488000  7.126000
C  3.538000  8.456000  6.293000
H  2.535000  8.308000  5.937000
C  4.465000  7.477000  6.125000
O  4.196000  6.341000  5.378000
C  5.651000  7.517000  6.824000
C  5.970000  8.646000  7.581000
H  7.011000  8.790000  7.919000
O  6.470000  6.470000  6.470000
H  7.425000  6.602000  6.736000
C  2.945000  6.361000  4.642000
H  2.676000  7.329000  4.164000
H  2.163000  6.037000  5.317000
H  3.051000  5.624000  3.847000
17
Lattice="12.8 0.0 0.0 0.0 12.8 0.0 0.0 0.0 12.8" Properties=species:S:1:pos:R:3 pbc="F F F" Time = 0.0 energy = 294.7
H  6.254000  10.874000  7.455000
C  5.683000  10.014000  7.233000
C  4.311000  10.074000  6.849000
H  3.863000  11.090000  6.821000
C  3.635000  8.988000  6.273000
H  2.595000  9.146000  6.088000
C  4.416000  7.772000  6.172000
O  3.971000  6.534000  5.800000
C  5.764000  7.711000  6.652000
C  6.419000  8.836000  7.176000
H  7.519000  8.856000  7.229000
O  6.470000  6.470000  6.470000
H  7.537000  6.659000  6.419000
C  2.670000  6.496000  5.210000
H  2.296000  7.495000  5.035000
H  2.018000  6.035000  5.965000
H  2.632000  5.994000  4.258000
17
Lattice="12.8 0.0 0.0 0.0 12.8 0.0 0.0 0.0 12.8" Properties=species:S:1:pos:R:3 pbc="F F F" Time = 0.0 energy = 274.3
H  5.367000  10.602000  8.157000
C  5.025000  9.785000  7.514000
C  3.794000  9.785000  6.862000
H  3.079000  10.620000  6.927000
C  3.451000  8.618000  6.153000
H  2.463000  8.582000  5.607000
C  4.263000  7.472000  6.174000
O  3.986000  6.309000  5.452000
C  5.607000  7.513000  6.716000
C  5.889000  8.651000  7.467000
H  6.946000  8.665000  7.861000
O  6.470000  6.470000  6.470000
H  7.450000  6.544000  6.744000
C  2.655000  6.109000  5.037000
H  2.075000  7.005000  4.849000
H  2.208000  5.505000  5.882000
H  2.689000  5.582000  4.088000
17
Lattice="12.8 0.0 0.0 0.0 12.8 0.0 0.0 0.0 12.8" Properties=species:S:1:pos:R:3 pbc="F F F" Time = 0.0 energy = 290.0
H  5.972000  10.893000  7.558000
C  5.530000  9.976000  7.207000
C  4.272000  10.020000  6.526000
H  3.723000  10.922000  6.631000
C  3.730000  8.823000  5.965000
H  2.671000  8.852000  5.702000
C  4.458000  7.595000  6.004000
O  4.054000  6.374000  5.536000
C  5.724000  7.625000  6.626000
C  6.285000  8.776000  7.195000
H  7.344000  8.800000  7.564000
O  6.470000  6.470000  6.470000
H  7.483000  6.601000  6.771000
C  3.060000  6.343000  4.351000
H  3.319000  7.060000  3.587000
H  2.020000  6.412000  4.732000
H  3.149000  5.340000  3.884000
17
Lattice="12.8 0.0 0.0 0.0 12.8 0.0 0.0 0.0 12.8" Properties=species:S:1:pos:R:3 pbc="F F F" Time = 0.0 energy = 272.4
H  5.943000  10.879000  7.421000
C  5.498000  9.989000  7.034000
C  4.202000  9.986000  6.491000
H  3.632000  10.875000  6.387000
C  3.693000  8.816000  5.870000
H  2.705000  8.736000  5.383000
C  4.419000  7.642000  5.901000
O  3.971000  6.406000  5.367000
C  5.741000  7.624000  6.472000
C  6.260000  8.814000  6.984000
H  7.310000  8.692000  7.356000
O  6.470000  6.470000  6.470000
H  7.430000  6.646000  6.755000
C  3.122000  6.329000  4.310000
H  3.288000  7.221000  3.696000
H  2.074000  6.394000  4.646000
H  3.290000  5.374000  3.766000
17
Lattice="12.8 0.0 0.0 0.0 12.8 0.0 0.0 0.0 12.8" Properties=species:S:1:pos:R:3 pbc="F F F" Time = 0.0 energy = 283.6
H  5.404000  10.764000  7.752000
C  5.142000  9.900000  7.190000
C  3.958000  9.862000  6.352000
H  3.427000  10.776000  6.119000
C  3.617000  8.653000  5.699000
H  2.733000  8.702000  5.050000
C  4.383000  7.472000  5.787000
O  4.073000  6.278000  5.187000
C  5.607000  7.546000  6.477000
C  5.890000  8.697000  7.292000
H  6.771000  8.672000  8.010000
O  6.470000  6.470000  6.470000
H  7.399000  6.795000  6.567000
C  2.675000  5.998000  4.882000
H  2.423000  6.314000  3.832000
H  2.031000  6.498000  5.600000
H  2.401000  4.944000  4.919000
17
Lattice="12.8 0.0 0.0 0.0 12.8 0.0 0.0 0.0 12.8" Properties=species:S:1:pos:R:3 pbc="F F F" Time = 0.0 energy = 271.9
H  5.664000  10.942000  7.667000
C  5.335000  9.945000  7.310000
C  3.974000  9.693000  7.196000
H  3.196000  10.481000  7.353000
C  3.453000  8.428000  6.906000
H  2.341000  8.304000  6.878000
C  4.328000  7.400000  6.605000
O  3.936000  6.101000  6.173000
C  5.733000  7.590000  6.739000
C  6.208000  8.854000  7.137000
H  7.265000  8.982000  7.408000
O  6.470000  6.470000  6.470000
H  7.526000  6.465000  6.705000
C  2.754000  5.995000  5.253000
H  2.970000  6.541000  4.293000
H  1.869000  6.471000  5.743000
H  2.714000  4.874000  5.114000
17
Lattice="12.8 0.0 0.0 0.0 12.8 0.0 0.0 0.0 12.8" Properties=species:S:1:pos:R:3 pbc="F F F" Time = 0.0 energy = 279.4
H  6.186000  10.955000  7.325000
C  5.649000  10.034000  7.025000
C  4.309000  10.102000  6.592000
H  3.741000  10.960000  6.765000
C  3.734000  8.907000  6.088000
H  2.739000  9.045000  5.722000
C  4.450000  7.718000  5.926000
O  3.989000  6.566000  5.286000
C  5.749000  7.658000  6.525000
C  6.397000  8.850000  6.939000
H  7.470000  8.941000  7.166000
O  6.470000  6.470000  6.470000
H  7.476000  6.616000  6.698000
C  2.684000  6.579000  4.609000
H  2.637000  7.412000  3.919000
H  1.878000  6.626000  5.297000
H  2.614000  5.644000  4.036000
17
Lattice="12.8 0.0 0.0 0.0 12.8 0.0 0.0 0.0 12.8" Properties=species:S:1:pos:R:3 pbc="F F F" Time = 0.0 energy = 269.7
H  6.483000  10.021000  9.292000
C  5.995000  9.571000  8.451000
C  4.829000  10.029000  7.815000
H  4.344000  10.920000  8.197000
C  4.162000  9.289000  6.862000
H  3.266000  9.735000  6.422000
C  4.741000  8.129000  6.398000
O  4.181000  7.345000  5.401000
C  5.930000  7.655000  6.947000
C  6.499000  8.332000  8.039000
H  7.348000  7.978000  8.539000
O  6.470000  6.470000  6.470000
H  7.430000  6.629000  6.537000
C  3.299000  7.641000  4.291000
H  3.681000  8.476000  3.620000
H  2.237000  7.830000  4.637000
H  3.299000  6.638000  3.779000
17
Lattice="12.8 0.0 0.0 0.0 12.8 0.0 0.0 0.0 12.8" Properties=species:S:1:pos:R:3 pbc="F F F" Time = 0.0 energy = 282.5
H  6.215000  10.435000  8.743000
C  5.814000  9.721000  8.025000
C  4.518000  9.974000  7.520000
H  4.029000  10.886000  7.845000
C  3.877000  9.087000  6.637000
H  2.908000  9.245000  6.203000
C  4.577000  7.941000  6.182000
O  4.175000  7.065000  5.237000
C  5.832000  7.646000  6.777000
C  6.424000  8.506000  7.694000
H  7.278000  8.039000  8.229000
O  6.470000  6.470000  6.470000
H  7.475000  6.493000  6.560000
C  3.406000  7.716000  4.153000
H  3.922000  8.566000  3.748000
H  2.374000  8.017000  4.454000
H  3.358000  7.011000  3.338000
17
Lattice="12.8 0.0 0.0 0.0 12.8 0.0 0.0 0.0 12.8" Properties=species:S:1:pos:R:3 pbc="F F F" Time = 0.0 energy = 267.5
H  5.531000  9.994000  9.163000
C  5.259000  9.521000  8.228000
C  4.253000  9.922000  7.323000
H  3.623000  10.809000  7.331000
C  4.044000  9.124000  6.140000
H  3.170000  9.304000  5.517000
C  4.752000  7.968000  5.934000
O  4.472000  7.022000  4.989000
C  5.755000  7.610000  6.834000
C  5.965000  8.324000  7.969000
H  6.786000  8.078000  8.593000
O  6.470000  6.470000  6.470000
H  7.488000  6.574000  6.668000
C  3.244000  7.007000  4.331000
H  3.109000  7.985000  3.818000
H  2.413000  6.798000  5.031000
H  3.303000  6.266000  3.492000
17
Lattice="12.8 0.0 0.0 0.0 12.8 0.0 0.0 0.0 12.8" Properties=species:S:1:pos:R:3 pbc="F F F" Time = 0.0 energy = 276.7
H  5.375000  10.218000  8.834000
C  5.190000  9.568000  8.004000
C  4.178000  9.944000  7.127000
H  3.578000  10.824000  7.330000
C  3.802000  9.091000  6.065000
H  3.043000  9.504000  5.414000
C  4.560000  7.929000  5.841000
O  4.309000  7.033000  4.798000
C  5.717000  7.630000  6.717000
C  5.993000  8.458000  7.789000
H  6.664000  8.166000  8.526000
O  6.470000  6.470000  6.470000
H  7.377000  6.571000  6.837000
C  3.059000  7.073000  4.031000
H  2.789000  8.081000  3.666000
H  2.192000  6.622000  4.631000
H  3.246000  6.440000  3.109000
17
Lattice="12.8 0.0 0.0 0.0 12.8 0.0 0.0 0.0 12.8" Properties=species:S:1:pos:R:3 pbc="F F F" Time = 0.0 energy = 279.5
H  5.745000  10.636000  8.339000
C  5.319000  9.800000  7.744000
C  4.124000  9.911000  7.032000
H  3.367000  10.645000  7.269000
C  3.721000  8.879000  6.181000
H  2.713000  8.919000  5.735000
C  4.599000  7.833000  5.848000
O  4.471000  6.951000  4.820000
C  5.771000  7.648000  6.602000
C  6.152000  8.665000  7.536000
H  7.155000  8.555000  8.064000
O  6.470000  6.470000  6.470000
H  7.374000  6.696000  6.851000
C  3.414000  7.159000  3.948000
H  3.496000  8.273000  3.610000
H  2.446000  7.053000  4.477000
H  3.512000  6.444000  3.136000
17
Lattice="12.8 0.0 0.0 0.0 12.8 0.0 0.0 0.0 12.8" Properties=species:S:1:pos:R:3 pbc="F F F" Time = 0.0 energy = 271.6
H  5.155000  10.312000  8.708000
C  5.102000  9.673000  7.783000
C  4.143000  9.897000  6.798000
H  3.647000  10.932000  6.883000
C  4.031000  9.053000  5.685000
H  3.317000  9.276000  4.866000
C  4.802000  7.891000  5.726000
O  4.788000  6.954000  4.662000
C  5.801000  7.633000  6.677000
C  5.939000  8.542000  7.701000
H  6.649000  8.322000  8.450000
O  6.470000  6.470000  6.470000
H  7.527000  6.483000  6.666000
C  3.528000  6.927000  3.904000
H  3.376000  7.776000  3.295000
H  2.598000  6.824000  4.478000
H  3.625000  6.039000  3.284000
17
Lattice="12.8 0.0 0.0 0.0 12.8 0.0 0.0 0.0 12.8" Properties=species:S:1:pos:R:3 pbc="F F F" Time = 0.0 energy = 271.8
H  6.208000  9.838000  9.495000
C  5.773000  9.329000  8.623000
C  4.849000  10.028000  7.840000
H  4.502000  10.976000  8.179000
C  4.324000  9.443000  6.642000
H  3.466000  9.968000  6.105000
C  4.773000  8.212000  6.199000
O  4.432000  7.567000  4.998000
C  5.816000  7.578000  6.950000
C  6.241000  8.109000  8.147000
H  6.905000  7.567000  8.894000
O  6.470000  6.470000  6.470000
H  7.503000  6.546000  6.494000
C  3.460000  8.313000  4.297000
H  3.832000  9.324000  3.942000
H  2.517000  8.468000  4.785000
H  3.315000  7.669000  3.441000
17
Lattice="12.8 0.0 0.0 0.0 12.8 0.0 0.0 0.0 12.8" Properties=species:S:1:pos:R:3 pbc="F F F" Time = 0.0 energy = 272.9
H  6.130000  9.786000  9.570000
C  5.654000  9.352000  8.651000
C  4.769000  10.076000  7.824000
H  4.366000  11.027000  8.279000
C  4.427000  9.562000  6.533000
H  3.649000  10.129000  6.024000
C  4.912000  8.295000  6.160000
O  4.516000  7.556000  5.088000
C  5.902000  7.655000  6.931000
C  6.292000  8.219000  8.087000
H  7.040000  7.748000  8.668000
O  6.470000  6.470000  6.470000
H  7.520000  6.585000  6.622000
C  3.636000  8.266000  4.143000
H  4.225000  9.009000  3.619000
H  2.807000  8.737000  4.690000
H  3.221000  7.468000  3.482000
17
Lattice="12.8 0.0 0.0 0.0 12.8 0.0 0.0 0.0 12.8" Properties=species:S:1:pos:R:3 pbc="F F F" Time = 0.0 energy = 276.8
H  5.950000  9.739000  9.587000
C  5.661000  9.301000  8.601000
C  4.729000  9.990000  7.846000
H  4.178000  10.881000  8.170000
C  4.372000  9.542000  6.586000
H  3.739000  10.164000  5.879000
C  4.876000  8.284000  6.144000
O  4.536000  7.487000  5.055000
C  5.884000  7.639000  6.891000
C  6.292000  8.162000  8.138000
H  7.055000  7.531000  8.644000
O  6.470000  6.470000  6.470000
H  7.486000  6.488000  6.505000
C  3.688000  8.102000  4.120000
H  4.238000  8.876000  3.538000
H  2.923000  8.606000  4.649000
H  3.255000  7.460000  3.368000
17
Lattice="12.8 0.0 0.0 0.0 12.8 0.0 0.0 0.0 12.8" Properties=species:S:1:pos:R:3 pbc="F F F" Time = 0.0 energy = 268.9
H  5.276000  10.031000  9.083000
C  5.063000  9.497000  8.134000
C  4.331000  10.101000  7.096000
H  3.920000  11.107000  7.114000
C  4.280000  9.462000  5.863000
H  3.627000  9.847000  5.022000
C  4.929000  8.275000  5.681000
O  4.931000  7.601000  4.466000
C  5.746000  7.657000  6.673000
C  5.744000  8.256000  7.907000
H  6.458000  7.890000  8.765000
O  6.470000  6.470000  6.470000
H  7.395000  6.576000  6.870000
C  4.070000  7.999000  3.385000
H  4.404000  8.898000  2.974000
H  2.989000  8.097000  3.691000
H  4.158000  7.236000  2.632000
17
Lattice="12.8 0.0 0.0 0.0 12.8 0.0 0.0 0.0 12.8" Properties=species:S:1:pos:R:3 pbc="F F F" Time = 0.0 energy = 268.9
H  5.408000  10.096000  9.120000
C  5.310000  9.588000  8.155000
C  4.693000  10.210000  7.062000
H  4.334000  11.225000  7.265000
C  4.616000  9.550000  5.821000
H  4.083000  10.007000  4.950000
C  5.160000  8.290000  5.690000
O  5.020000  7.510000  4.542000
C  5.874000  7.689000  6.746000
C  5.903000  8.311000  7.991000
H  6.523000  7.848000  8.725000
O  6.470000  6.470000  6.470000
H  7.419000  6.558000  6.839000
C  4.304000  8.089000  3.434000
H  4.560000  9.207000  3.241000