14
Lattice="15.91 0.0 0.0 0.0 15.91 0.0 0.0 0.0 15.91" Properties=species:S:1:pos:R:3 pbc="F F F" Time = 0.0 energy = 275.0
H  13.757000  0.173000  13.148000
C  12.680000  0.436000  13.391000
C  11.715000 -0.440000  13.849000
O  12.001000 -1.804000  14.120000
C  10.493000  0.189000  14.157000
H  9.747000 -0.437000  14.620000
C  10.285000  1.539000  14.103000
H  9.370000  2.033000  14.369000
C  11.329000  2.397000  13.705000
C  12.537000  1.795000  13.281000
H  13.324000  2.336000  12.817000
O  11.066000  3.761000  13.665000
H  11.895000  4.249000  13.270000
H  11.056000 -2.315000  14.113000
14
Lattice="15.91 0.0 0.0 0.0 15.91 0.0 0.0 0.0 15.91" Properties=species:S:1:pos:R:3 pbc="F F F" Time = 0.0 energy = 285.3
H  13.972000  0.332000  13.336000
C  12.949000  0.509000  13.573000
C  12.010000 -0.475000  13.953000
O  12.376000 -1.812000  13.935000
C  10.741000 -0.037000  14.276000
H  9.858000 -0.694000  14.402000
C  10.411000  1.348000  14.250000
H  9.411000  1.736000  14.564000
C  11.354000  2.331000  13.905000
C  12.606000  1.887000  13.542000
H  13.356000  2.697000  13.338000
O  10.931000  3.615000  13.831000
H  11.715000  4.194000  13.694000
H  11.528000 -2.329000  14.015000
14
Lattice="15.91 0.0 0.0 0.0 15.91 0.0 0.0 0.0 15.91" Properties=species:S:1:pos:R:3 pbc="F F F" Time = 0.0 energy = 295.1
H  13.967000  0.271000  13.343000
C  12.974000  0.492000  13.572000
C  12.006000 -0.472000  13.937000
O  12.372000 -1.798000  13.934000
C  10.735000 -0.036000  14.290000
H  9.846000 -0.698000  14.405000
C  10.414000  1.350000  14.248000
H  9.412000  1.702000  14.571000
C  11.361000  2.327000  13.918000
C  12.634000  1.898000  13.542000
H  13.371000  2.706000  13.317000
O  10.932000  3.592000  13.833000
H  11.715000  4.210000  13.714000
H  11.542000 -2.315000  14.032000
14
Lattice="15.91 0.0 0.0 0.0 15.91 0.0 0.0 0.0 15.91" Properties=species:S:1:pos:R:3 pbc="F F F" Time = 0.0 energy = 302.1
H  14.015000  0.167000  13.335000
C  12.991000  0.484000  13.572000
C  12.005000 -0.465000  13.917000
O  12.366000 -1.783000  13.931000
C  10.716000 -0.030000  14.304000
H  9.862000 -0.705000  14.420000
C  10.415000  1.347000  14.249000
H  9.423000  1.648000  14.569000
C  11.369000  2.306000  13.931000
C  12.670000  1.904000  13.542000
H  13.376000  2.682000  13.291000
O  10.934000  3.574000  13.835000
H  11.707000  4.219000  13.730000
H  11.537000 -2.325000  14.050000
14
Lattice="15.91 0.0 0.0 0.0 15.91 0.0 0.0 0.0 15.91" Properties=species:S:1:pos:R:3 pbc="F F F" Time = 0.0 energy = 297.1
H  13.949000 -0.507000  13.298000
C  13.106000  0.052000  13.507000
C  12.054000 -0.743000  14.004000
O  12.162000 -2.081000  14.116000
C  10.850000 -0.118000  14.447000
H  10.039000 -0.748000  14.779000
C  10.631000  1.253000  14.254000
H  9.683000  1.677000  14.584000
C  11.661000  2.072000  13.726000
C  12.898000  1.467000  13.380000
H  13.673000  2.178000  13.076000
O  11.333000  3.370000  13.439000
H  12.161000  3.861000  13.278000
H  11.259000 -2.493000  14.046000
14
Lattice="15.91 0.0 0.0 0.0 15.91 0.0 0.0 0.0 15.91" Properties=species:S:1:pos:R:3 pbc="F F F" Time = 0.0 energy = 294.0
H  13.575000 -0.207000  14.371000
C  12.646000  0.362000  14.112000
C  11.486000 -0.442000  13.898000
O  11.709000 -1.837000  14.023000
C  10.271000  0.059000  13.457000
H  9.303000 -0.478000  13.491000
C  10.212000  1.428000  13.295000
H  9.253000  1.910000  13.026000
C  11.355000  2.246000  13.522000
C  12.588000  1.744000  13.906000
H  13.452000  2.431000  13.992000
O  10.981000  3.598000  13.468000
H  11.828000  4.060000  13.336000
H  10.773000 -2.325000  14.069000
14
Lattice="15.91 0.0 0.0 0.0 15.91 0.0 0.0 0.0 15.91" Properties=species:S:1:pos:R:3 pbc="F F F" Time = 0.0 energy = 293.4
H  13.620000  0.151000  14.925000
C  12.764000  0.435000  14.375000
C  11.873000 -0.580000  13.866000
O  12.053000 -1.866000  14.262000
C  10.748000 -0.096000  13.136000
H  9.973000 -0.778000  12.748000
C  10.571000  1.278000  12.945000
H  9.677000  1.652000  12.441000
C  11.465000  2.244000  13.485000
C  12.601000  1.816000  14.121000
H  13.376000  2.545000  14.415000
O  11.179000  3.516000  13.207000
H  11.953000  4.085000  13.157000
H  11.291000 -2.392000  13.919000
14
Lattice="15.91 0.0 0.0 0.0 15.91 0.0 0.0 0.0 15.91" Properties=species:S:1:pos:R:3 pbc="F F F" Time = 0.0 energy = 289.8
H  13.704000  0.158000  15.114000
C  12.818000  0.395000  14.514000
C  11.939000 -0.613000  14.031000
O  12.165000 -1.923000  14.520000
C  10.867000 -0.178000  13.257000
H  10.180000 -0.802000  12.685000
C  10.594000  1.158000  12.960000
H  9.685000  1.384000  12.423000
C  11.497000  2.174000  13.412000
C  12.606000  1.736000  14.184000
H  13.199000  2.458000  14.722000
O  11.202000  3.431000  13.059000
H  11.900000  4.095000  13.121000
H  11.322000 -2.469000  14.350000
14
Lattice="15.91 0.0 0.0 0.0 15.91 0.0 0.0 0.0 15.91" Properties=species:S:1:pos:R:3 pbc="F F F" Time = 0.0 energy = 300.4
H  13.528000  0.213000  15.310000
C  12.785000  0.444000  14.560000
C  11.898000 -0.627000  14.130000
O  12.140000 -1.920000  14.471000
C  10.810000 -0.283000  13.310000
H  10.150000 -1.142000  13.102000
C  10.562000  1.069000  12.969000
H  9.736000  1.447000  12.300000
C  11.461000  2.122000  13.370000
C  12.538000  1.783000  14.155000
H  13.242000  2.627000  14.414000
O  11.196000  3.401000  13.075000
H  12.029000  4.051000  13.059000
H  11.346000 -2.479000  14.158000
14
Lattice="15.91 0.0 0.0 0.0 15.91 0.0 0.0 0.0 15.91" Properties=species:S:1:pos:R:3 pbc="F F F" Time = 0.0 energy = 298.7
H  13.513000  0.150000  15.208000
C  12.684000  0.347000  14.590000
C  11.858000 -0.673000  14.135000
O  12.119000 -1.963000  14.455000
C  10.687000 -0.347000  13.420000
H  9.909000 -1.126000  13.143000
C  10.499000  1.068000  13.127000
H  9.614000  1.292000  12.476000
C  11.362000  2.133000  13.469000
C  12.460000  1.714000  14.317000
H  13.224000  2.403000  14.762000
O  11.216000  3.359000  12.934000
H  12.001000  3.961000  13.062000
H  11.352000 -2.498000  14.080000
14
Lattice="15.91 0.0 0.0 0.0 15.91 0.0 0.0 0.0 15.91" Properties=species:S:1:pos:R:3 pbc="F F F" Time = 0.0 energy = 282.2
H  13.543000  0.055000  15.056000
C  12.670000  0.311000  14.496000
C  11.751000 -0.724000  14.074000
O  12.083000 -2.101000  14.338000
C  10.641000 -0.301000  13.352000
H  9.871000 -1.064000  13.059000
C  10.416000  1.034000  12.959000
H  9.649000  1.505000  12.303000
C  11.309000  2.040000  13.434000
C  12.402000  1.640000  14.206000
H  13.122000  2.427000  14.463000
O  10.989000  3.377000  13.103000
H  11.790000  3.978000  13.178000
H  11.331000 -2.669000  14.153000
14
Lattice="15.91 0.0 0.0 0.0 15.91 0.0 0.0 0.0 15.91" Properties=species:S:1:pos:R:3 pbc="F F F" Time = 0.0 energy = 303.4
H  13.567000  0.044000  14.969000
C  12.676000  0.361000  14.344000
C  11.815000 -0.669000  13.848000
O  12.052000 -1.944000  14.255000
C  10.638000 -0.372000  13.101000
H  10.037000 -1.251000  12.797000
C  10.307000  0.968000  12.951000
H  9.415000  1.355000  12.428000
C  11.160000  2.025000  13.433000
C  12.356000  1.711000  14.106000
H  13.021000  2.490000  14.387000
O  10.855000  3.353000  13.196000
H  11.726000  3.814000  13.287000
H  11.280000 -2.589000  14.031000
14
Lattice="15.91 0.0 0.0 0.0 15.91 0.0 0.0 0.0 15.91" Properties=species:S:1:pos:R:3 pbc="F F F" Time = 0.0 energy = 302.4
H  13.554000  0.139000  14.709000
C  12.654000  0.349000  14.207000
C  11.765000 -0.685000  13.772000
O  12.149000 -1.958000  13.947000
C  10.592000 -0.350000  13.051000
H  9.901000 -1.155000  12.670000
C  10.311000  1.041000  12.793000
H  9.462000  1.390000  12.185000
C  11.191000  2.076000  13.359000
C  12.318000  1.727000  14.050000
H  13.052000  2.474000  14.483000
O  10.796000  3.429000  13.321000
H  11.524000  4.116000  13.297000
H  11.418000 -2.530000  13.606000
14
Lattice="15.91 0.0 0.0 0.0 15.91 0.0 0.0 0.0 15.91" Properties=species:S:1:pos:R:3 pbc="F F F" Time = 0.0 energy = 300.6
H  13.704000 -0.071000  14.617000
C  12.799000  0.254000  14.151000
C  11.840000 -0.625000  13.560000
O  12.271000 -1.910000  13.428000
C  10.622000 -0.185000  13.046000
H  9.962000 -0.988000  12.619000
C  10.331000  1.240000  12.975000
H  9.426000  1.583000  12.456000
C  11.305000  2.139000  13.484000
C  12.443000  1.636000  14.140000
H  13.170000  2.299000  14.705000
O  10.929000  3.514000  13.418000
H  11.814000  4.007000  13.439000
H  11.453000 -2.409000  13.279000
14
Lattice="15.91 0.0 0.0 0.0 15.91 0.0 0.0 0.0 15.91" Properties=species:S:1:pos:R:3 pbc="F F F" Time = 0.0 energy = 299.1
H  13.303000  0.116000  15.073000
C  12.481000  0.367000  14.378000
C  11.438000 -0.522000  14.094000
O  11.577000 -1.853000  14.464000
C  10.255000 -0.029000  13.478000
H  9.531000 -0.747000  13.187000
C  10.066000  1.388000  13.276000
H  9.205000  1.853000  12.757000
C  11.160000  2.283000  13.545000
C  12.308000  1.714000  14.063000
H  13.115000  2.372000  14.366000
O  10.947000  3.632000  13.395000
H  11.840000  4.106000  13.425000
H  10.816000 -2.501000  14.024000
14
Lattice="15.91 0.0 0.0 0.0 15.91 0.0 0.0 0.0 15.91" Properties=species:S:1:pos:R:3 pbc="F F F" Time = 0.0 energy = 285.0
H  13.738000  0.324000  14.357000
C  12.763000  0.672000  14.253000
C  11.730000 -0.303000  14.108000
O  12.020000 -1.617000  14.339000
C  10.463000  0.166000  13.860000
H  9.595000 -0.560000  13.863000
C  10.259000  1.550000  13.559000
H  9.238000  1.828000  13.529000
C  11.234000  2.482000  13.709000
C  12.509000  2.017000  14.122000
H  13.374000  2.687000  14.366000
O  10.945000  3.762000  13.501000
H  11.815000  4.200000  13.443000
H  11.411000 -2.293000  13.835000
14
Lattice="15.91 0.0 0.0 0.0 15.91 0.0 0.0 0.0 15.91" Properties=species:S:1:pos:R:3 pbc="F F F" Time = 0.0 energy = 281.2
H  13.840000  0.323000  14.402000
C  12.752000  0.665000  14.242000
C  11.773000 -0.256000  14.114000
O  12.060000 -1.595000  14.321000
C  10.445000  0.166000  13.861000
H  9.689000 -0.582000  13.903000
C  10.197000  1.521000  13.600000
H  9.162000  1.967000  13.523000
C  11.270000  2.421000  13.692000
C  12.543000  2.011000  14.094000
H  13.327000  2.640000  14.409000
O  10.988000  3.798000  13.548000
H  11.873000  4.323000  13.449000
H  11.567000 -2.228000  13.762000
14
Lattice="15.91 0.0 0.0 0.0 15.91 0.0 0.0 0.0 15.91" Properties=species:S:1:pos:R:3 pbc="F F F" Time = 0.0 energy = 304.5
H  13.964000 -0.105000  13.616000
C  12.975000  0.300000  13.524000
C  11.945000 -0.699000  13.620000
O  12.264000 -2.060000  13.510000
C  10.597000 -0.303000  13.771000
H  9.798000 -0.955000  14.060000
C  10.271000  1.092000  13.781000
H  9.176000  1.423000  13.985000
C  11.251000  2.091000  13.564000
C  12.598000  1.668000  13.418000
H  13.385000  2.413000  13.325000
O  10.884000  3.366000  13.672000
H  11.613000  4.051000  13.553000
H  11.474000 -2.645000  13.790000
14
Lattice="15.91 0.0 0.0 0.0 15.91 0.0 0.0 0.0 15.91" Properties=species:S:1:pos:R:3 pbc="F F F" Time = 0.0 energy = 302.5
H  13.401000  0.221000  15.383000
C  12.674000  0.461000  14.531000
C  11.953000 -0.609000  13.958000
O  12.235000 -1.891000  14.231000
C  10.977000 -0.242000  12.964000
H  10.399000 -1.007000  12.544000
C  10.707000  1.140000  12.633000
H  9.904000  1.383000  11.850000
C  11.447000  2.132000  13.247000
C  12.492000  1.826000  14.226000
H  13.078000  2.637000  14.659000
O  11.089000  3.449000  12.969000
H  11.689000  4.127000  13.329000
H  11.477000 -2.588000  13.893000
14
Lattice="15.91 0.0 0.0 0.0 15.91 0.0 0.0 0.0 15.91" Properties=species:S:1:pos:R:3 pbc="F F F" Time = 0.0 energy = 292.2
H  13.943000  0.024000  14.252000
C  12.919000  0.331000  14.004000
C  11.921000 -0.681000  13.800000
O  12.296000 -1.969000  14.121000
C  10.653000 -0.310000  13.479000
H  9.937000 -1.115000  13.331000
C  10.282000  1.107000  13.313000
H  9.274000  1.403000  13.072000
C  11.248000  2.093000  13.606000
C  12.566000  1.681000  13.909000
H  13.332000  2.492000  14.095000
O  10.915000  3.421000  13.533000
H  11.651000  4.047000  13.800000
H  11.566000 -2.673000  13.857000
14
Lattice="15.91 0.0 0.0 0.0 15.91 0.0 0.0 0.0 15.91" Properties=species:S:1:pos:R:3 pbc="F F F" Time = 0.0 energy = 301.1
H  13.865000  0.073000  14.435000
C  12.865000  0.307000  14.160000
C  11.934000 -0.702000  13.854000
O  12.310000 -1.981000  13.858000
C  10.627000 -0.267000  13.433000
H  9.990000 -1.042000  13.033000
C  10.304000  1.130000  13.269000
H  9.330000  1.462000  12.893000
C  11.299000  2.089000  13.579000
C  12.591000  1.645000  13.981000
H  13.384000  2.418000  14.197000
O  11.049000  3.395000  13.522000
H  11.803000  3.962000  13.424000
H  11.508000 -2.656000  13.787000
14
Lattice="15.91 0.0 0.0 0.0 15.91 0.0 0.0 0.0 15.91" Properties=species:S:1:pos:R:3 pbc="F F F" Time = 0.0 energy = 297.8
H  14.049000  0.157000  14.576000
C  12.991000  0.360000  14.166000
C  12.038000 -0.555000  13.723000
O  12.298000 -1.884000  13.902000
C  10.764000 -0.060000  13.262000
H  9.937000 -0.793000  12.980000
C  10.471000  1.311000  13.139000
H  9.448000  1.657000  12.961000
C  11.485000  2.248000  13.626000
C  12.716000  1.784000  14.036000
H  13.398000  2.581000  14.405000
O  11.120000  3.588000  13.680000
H  11.913000  4.265000  13.702000
H  11.449000 -2.467000  14.007000
14
Lattice="15.91 0.0 0.0 0.0 15.91 0.0 0.0 0.0 15.91" Properties=species:S:1:pos:R:3 pbc="F F F" Time = 0.0 energy = 288.5
H  13.884000  0.449000  14.272000
C  12.879000  0.826000  14.008000
C  11.925000 -0.213000  13.792000
O  12.254000 -1.544000  13.969000
C  10.665000  0.145000  13.370000
H  10.032000 -0.686000  13.019000
C  10.304000  1.512000  13.129000
H  9.302000  1.626000  12.818000
C  11.233000  2.530000  13.475000
C  12.523000  2.150000  13.806000
H  13.165000  2.999000  14.050000
O  10.898000  3.873000  13.411000
H  11.672000  4.480000  13.581000
H  11.398000 -2.088000  14.011000
14
Lattice="15.91 0.0 0.0 0.0 15.91 0.0 0.0 0.0 15.91" Properties=species:S:1:pos:R:3 pbc="F F F" Time = 0.0 energy = 290.0
H  13.720000  0.355000  14.244000
C  12.835000  0.837000  13.948000
C  11.840000 -0.100000  13.534000
O  12.172000 -1.471000  13.735000
C  10.578000  0.315000  13.100000
H  9.824000 -0.451000  12.996000
C  10.314000  1.695000  12.995000
H  9.403000  2.060000  12.609000
C  11.321000  2.571000  13.270000
C  12.590000  2.182000  13.813000
H  13.211000  3.041000  13.963000
O  11.031000  3.923000  13.143000
H  11.848000  4.534000  13.037000
H  11.398000 -2.076000  13.515000
14
Lattice="15.91 0.0 0.0 0.0 15.91 0.0 0.0 0.0 15.91" Properties=species:S:1:pos:R:3 pbc="F F F" Time = 0.0 energy = 283.3
H  13.857000  0.574000  14.277000
C  12.847000  0.825000  13.833000
C  11.886000 -0.150000  13.618000
O  12.163000 -1.481000  13.802000
C  10.613000  0.279000  13.136000
H  9.832000 -0.415000  12.771000
C  10.344000  1.659000  12.992000
H  9.329000  1.985000  12.641000
C  11.285000  2.635000  13.337000
C  12.557000  2.136000  13.743000
H  13.386000  2.757000  14.136000
O  11.077000  3.985000  13.096000
H  11.939000  4.483000  13.023000
H  11.301000 -2.033000  13.797000
14
Lattice="15.91 0.0 0.0 0.0 15.91 0.0 0.0 0.0 15.91" Properties=species:S:1:pos:R:3 pbc="F F F" Time = 0.0 energy = 290.0
H  14.130000 -0.159000  14.364000
C  13.111000  0.159000  13.971000
C  12.080000 -0.712000  13.526000
O  12.427000 -2.040000  13.519000
C  10.792000 -0.227000  13.288000
H  9.933000 -0.963000  13.124000
C  10.526000  1.177000  13.302000
H  9.544000  1.558000  12.997000
C  11.611000  2.005000  13.537000
C  12.863000  1.489000  13.971000
H  13.619000  2.161000  14.422000
O  11.457000  3.376000  13.441000
H  12.375000  3.863000  13.524000
H  11.661000 -2.641000  13.267000
14
Lattice="15.91 0.0 0.0 0.0 15.91 0.0 0.0 0.0 15.91" Properties=species:S:1:pos:R:3 pbc="F F F" Time = 0.0 energy = 284.4
H  14.061000  0.025000  14.495000
C  13.125000  0.402000  14.141000
C  12.118000 -0.536000  13.826000
O  12.363000 -1.876000  13.994000
C  10.826000 -0.067000  13.461000
H  9.931000 -0.703000  13.304000
C  10.639000  1.333000  13.322000
H  9.598000  1.778000  13.181000
C  11.661000  2.234000  13.584000
C  12.912000  1.742000  14.012000
H  13.729000  2.491000  14.221000
O  11.350000  3.650000  13.434000
H  12.195000  4.139000  13.299000
H  11.524000 -2.457000  13.667000
14
Lattice="15.91 0.0 0.0 0.0 15.91 0.0 0.0 0.0 15.91" Properties=species:S:1:pos:R:3 pbc="F F F" Time = 0.0 energy = 286.8
H  13.674000  0.161000  14.191000
C  12.713000  0.404000  13.803000
C  11.761000 -0.557000  13.492000
O  12.172000 -1.848000  13.739000
C  10.528000 -0.193000  12.990000
H  9.877000 -1.045000  12.776000
C  10.183000  1.129000  12.889000
H  9.196000  1.388000  12.383000
C  11.132000  2.111000  13.266000
C  12.414000  1.783000  13.730000
H  13.126000  2.620000  13.933000
O  10.664000  3.450000  13.227000
H  11.416000  4.097000  13.232000
H  11.353000 -2.442000  13.670000
14
Lattice="15.91 0.0 0.0 0.0 15.91 0.0 0.0 0.0 15.91" Properties=species:S:1:pos:R:3 pbc="F F F" Time = 0.0 energy = 293.1
H  13.666000  0.118000  14.267000
C  12.734000  0.448000  13.894000
C  11.791000 -0.552000  13.572000
O  12.133000 -1.895000  13.741000
C  10.499000 -0.230000  13.030000
H  9.765000 -0.939000  12.669000
C  10.193000  1.155000  12.910000
H  9.270000  1.563000  12.345000
C  11.117000  2.121000  13.235000
C  12.389000  1.777000  13.696000
H  13.226000  2.452000  13.952000
O  10.723000  3.449000  13.134000
H  11.560000  3.991000  13.203000
H  11.358000 -2.570000  13.874000
14
Lattice="15.91 0.0 0.0 0.0 15.91 0.0 0.0 0.0 15.91" Properties=species:S:1:pos:R:3 pbc="F F F" Time = 0.0 energy = 293.3
H  13.773000  0.170000  14.466000
C  12.712000  0.354000  14.106000
C  11.758000 -0.604000  13.774000
O  12.078000 -1.934000  13.882000
C  10.544000 -0.203000  13.162000
H  9.824000 -1.043000  12.945000
C  10.265000  1.161000  12.969000
H  9.397000  1.437000  12.472000
C  11.290000  2.125000  13.202000
C  12.446000  1.699000  13.897000
H  13.231000  2.426000  14.062000
O  11.012000  3.433000  12.821000
H  11.784000  4.037000  12.897000
H  11.338000 -2.490000  13.495000
14
Lattice="15.91 0.0 0.0 0.0 15.91 0.0 0.0 0.0 15.91" Properties=species:S:1:pos:R:3 pbc="F F F" Time = 0.0 energy = 296.0
H  13.808000 -0.004000  14.537000
C  12.870000  0.324000  14.104000
C  11.858000 -0.602000  13.797000
O  11.956000 -1.957000  14.197000
C  10.647000 -0.153000  13.180000
H  9.916000 -0.831000  12.875000
C  10.494000  1.223000  12.890000
H  9.462000  1.510000  12.430000
C  11.456000  2.137000  13.304000
C  12.689000  1.704000  13.849000
H  13.476000  2.400000  14.180000
O  11.145000  3.425000  12.997000
H  11.932000  3.956000  13.213000
H  11.193000 -2.511000  13.730000
14
Lattice="15.91 0.0 0.0 0.0 15.91 0.0 0.0 0.0 15.91" Properties=species:S:1:pos:R:3 pbc="F F F" Time = 0.0 energy = 286.3
H  13.756000  0.279000  14.659000
C  12.841000  0.554000  14.196000
C  11.834000 -0.433000  14.044000
O  12.117000 -1.800000  14.433000
C  10.614000 -0.081000  13.434000
H  9.809000 -0.869000  13.468000
C  10.345000  1.202000  12.973000
H  9.318000  1.322000  12.628000
C  11.416000  2.137000  13.058000
C  12.582000  1.832000  13.735000
H  13.340000  2.590000  13.946000
O  11.160000  3.464000  12.691000
H  11.896000  4.140000  12.963000
H  11.334000 -2.342000  14.120000
14
Lattice="15.91 0.0 0.0 0.0 15.91 0.0 0.0 0.0 15.91" Properties=species:S:1:pos:R:3 pbc="F F F" Time = 0.0 energy = 283.5
H  13.530000  0.241000  14.761000
C  12.584000  0.573000  14.288000
C  11.673000 -0.408000  13.956000
O  11.908000 -1.661000  14.440000
C  10.503000 -0.026000  13.292000
H  9.639000 -0.742000  12.993000
C  10.342000  1.308000  12.838000
H  9.539000  1.633000  12.235000
C  11.247000  2.295000  13.156000
C  12.433000  1.886000  13.814000
H  13.147000  2.641000  14.081000
O  11.026000  3.645000  12.822000
H  11.861000  4.143000  13.100000
H  11.472000 -2.420000  13.877000
14
Lattice="15.91 0.0 0.0 0.0 15.91 0.0 0.0 0.0 15.91" Properties=species:S:1:pos:R:3 pbc="F F F" Time = 0.0 energy = 281.7
H  13.420000  0.126000  15.164000
C  12.567000  0.534000  14.564000
C  11.727000 -0.366000  13.940000
O  12.159000 -1.745000  13.926000
C  10.525000  0.049000  13.288000
H  9.805000 -0.578000  12.886000
C  10.277000  1.467000  13.267000
H  9.368000  1.883000  12.760000
C  11.173000  2.362000  13.872000
C  12.310000  1.871000  14.478000
H  13.033000  2.582000  14.881000
O  10.954000  3.738000  13.825000
H  11.832000  4.115000  13.607000
H  11.361000 -2.346000  13.582000
14
Lattice="15.91 0.0 0.0 0.0 15.91 0.0 0.0 0.0 15.91" Properties=species:S:1:pos:R:3 pbc="F F F" Time = 0.0 energy = 288.6
H  13.671000  0.123000  14.908000
C  12.809000  0.495000  14.340000
C  11.841000 -0.440000  13.860000
O  12.089000 -1.772000  13.916000
C  10.647000  0.079000  13.327000
H  9.902000 -0.570000  12.879000
C  10.336000  1.452000  13.329000
H  9.433000  1.902000  12.848000
C  11.231000  2.341000  13.944000
C  12.467000  1.873000  14.449000
H  13.225000  2.528000  14.905000
O  10.846000  3.694000  14.020000
H  11.523000  4.272000  13.584000
H  11.228000 -2.223000  13.753000
14
Lattice="15.91 0.0 0.0 0.0 15.91 0.0 0.0 0.0 15.91" Properties=species:S:1:pos:R:3 pbc="F F F" Time = 0.0 energy = 289.0
H  13.719000  0.185000  14.803000
C  12.796000  0.509000  14.334000
C  11.893000 -0.397000  13.817000
O  12.097000 -1.785000  13.944000
C  10.654000  0.070000  13.311000
H  9.835000 -0.625000  12.926000
C  10.329000  1.464000  13.328000
H  9.438000  1.866000  12.871000
C  11.244000  2.312000  14.002000
C  12.542000  1.874000  14.397000
H  13.240000  2.531000  14.895000
O  10.829000  3.659000  14.040000
H  11.517000  4.277000  13.600000
H  11.266000 -2.361000  13.614000
14
Lattice="15.91 0.0 0.0 0.0 15.91 0.0 0.0 0.0 15.91" Properties=species:S:1:pos:R:3 pbc="F F F" Time = 0.0 energy = 292.0
H  14.011000  0.145000  13.920000
C  12.959000  0.445000  13.862000
C  12.021000 -0.597000  13.725000
O  12.448000 -1.904000  13.801000
C  10.645000 -0.273000  13.592000
H  9.818000 -0.972000  13.449000
C  10.240000  1.122000  13.643000
H  9.206000  1.454000  13.508000
C  11.185000  2.120000  13.797000
C  12.493000  1.758000  13.857000
H  13.191000  2.507000  14.194000
O  10.762000  3.413000  13.806000
H  11.542000  4.025000  13.630000
H  11.636000 -2.523000  13.758000
14
Lattice="15.91 0.0 0.0 0.0 15.91 0.0 0.0 0.0 15.91" Properties=species:S:1:pos:R:3 pbc="F F F" Time = 0.0 energy = 294.4
H  13.807000  0.053000  14.580000
C  12.781000  0.386000  14.249000
C  11.731000 -0.543000  13.944000
O  11.966000 -1.881000  14.003000
C  10.485000 -0.029000  13.568000
H  9.616000 -0.699000  13.295000
C  10.237000  1.352000  13.634000
H  9.326000  1.651000  13.247000
C  11.311000  2.224000  13.739000
C  12.559000  1.768000  14.188000
H  13.359000  2.479000  14.358000
O  11.082000  3.600000  13.573000
H  11.925000  4.104000  13.447000
H  11.221000 -2.456000  13.587000
14
Lattice="15.91 0.0 0.0 0.0 15.91 0.0 0.0 0.0 15.91" Properties=species:S:1:pos:R:3 pbc="F F F" Time = 0.0 energy = 291.9
H  14.133000  0.127000  12.760000
C  13.210000  0.471000  13.213000
C  12.209000 -0.398000  13.670000
O  12.424000 -1.739000  13.544000
C  11.014000  0.154000  14.209000
H  10.152000 -0.528000  14.429000
C  10.833000  1.566000  14.249000
H  9.836000  1.930000  14.641000
C  11.829000  2.440000  13.748000
C  12.993000  1.906000  13.253000
H  13.740000  2.502000  12.685000
O  11.563000  3.837000  13.711000
H  12.159000  4.301000  13.113000
H  11.474000 -2.153000  13.508000
14
Lattice="15.91 0.0 0.0 0.0 15.91 0.0 0.0 0.0 15.91" Properties=species:S:1:pos:R:3 pbc="F F F" Time = 0.0 energy = 287.7
H  13.684000 -0.172000  12.777000
C  12.827000  0.297000  13.185000
C  11.705000 -0.546000  13.364000
O  11.922000 -1.881000  13.105000
C  10.495000  0.074000  13.779000
H  9.630000 -0.564000  14.074000
C  10.367000  1.460000  13.975000
H  9.376000  1.969000  14.246000
C  11.501000  2.212000  13.744000
C  12.697000  1.654000  13.355000
H  13.596000  2.258000  13.328000
O  11.389000  3.581000  13.951000
H  12.156000  4.053000  13.615000
H  11.089000 -2.463000  13.215000
14
Lattice="15.91 0.0 0.0 0.0 15.91 0.0 0.0 0.0 15.91" Properties=species:S:1:pos:R:3 pbc="F F F" Time = 0.0 energy = 274.0
H  14.204000  0.357000  12.356000
C  13.269000  0.578000  12.807000
C  12.343000 -0.456000  12.961000
O  12.769000 -1.811000  12.835000
C  11.112000 -0.128000  13.450000
H  10.367000 -0.972000  13.688000
C  10.756000  1.220000  13.584000
H  9.734000  1.436000  13.975000
C  11.677000  2.257000  13.436000
C  12.981000  1.880000  13.052000
H  13.695000  2.683000  12.857000
O  11.267000  3.572000  13.558000
H  12.003000  4.156000  13.781000
H  12.052000 -2.481000  12.916000
14
Lattice="15.91 0.0 0.0 0.0 15.91 0.0 0.0 0.0 15.91" Properties=species:S:1:pos:R:3 pbc="F F F" Time = 0.0 energy = 293.7
H  14.268000  0.332000  12.271000
C  13.292000  0.548000  12.778000
C  12.393000 -0.495000  12.952000
O  12.801000 -1.815000  12.813000
C  11.095000 -0.134000  13.423000
H  10.482000 -0.942000  13.715000
C  10.728000  1.218000  13.618000
H  9.685000  1.426000  13.792000
C  11.672000  2.234000  13.417000
C  12.982000  1.920000  13.044000
H  13.725000  2.677000  12.797000
O  11.266000  3.554000  13.571000
H  12.049000  4.160000  13.766000
H  11.996000 -2.424000  12.953000
14
Lattice="15.91 0.0 0.0 0.0 15.91 0.0 0.0 0.0 15.91" Properties=species:S:1:pos:R:3 pbc="F F F" Time = 0.0 energy = 292.7
H  14.347000  0.218000  12.408000
C  13.343000  0.549000  12.756000
C  12.403000 -0.492000  12.932000
O  12.833000 -1.842000  12.868000
C  11.087000 -0.208000  13.312000
H  10.372000 -0.975000  13.588000
C  10.769000  1.141000  13.577000
H  9.778000  1.457000  13.934000
C  11.675000  2.173000  13.233000
C  12.995000  1.884000  12.813000
H  13.744000  2.601000  12.566000
O  11.314000  3.509000  13.560000
H  11.912000  4.143000  13.107000
H  12.061000 -2.409000  13.146000
14
Lattice="15.91 0.0 0.0 0.0 15.91 0.0 0.0 0.0 15.91" Properties=species:S:1:pos:R:3 pbc="F F F" Time = 0.0 energy = 288.1
H  14.081000  0.013000  13.234000
C  13.146000  0.458000  13.552000
C  12.079000 -0.320000  14.020000
O  12.277000 -1.702000  14.241000
C  10.816000  0.249000  14.250000
H  9.952000 -0.344000  14.691000
C  10.723000  1.583000  14.167000
H  9.730000  2.061000  14.447000
C  11.739000  2.451000  13.668000
C  12.965000  1.854000  13.294000
H  13.752000  2.380000  12.749000
O  11.513000  3.783000  13.694000
H  12.369000  4.305000  13.560000
H  11.457000 -2.177000  14.024000
14
Lattice="15.91 0.0 0.0 0.0 15.91 0.0 0.0 0.0 15.91" Properties=species:S:1:pos:R:3 pbc="F F F" Time = 0.0 energy = 285.2
H  13.788000  0.117000  13.321000
C  12.834000  0.495000  13.693000
C  11.861000 -0.385000  14.174000
O  12.168000 -1.723000  14.258000
C  10.645000  0.145000  14.513000
H  9.854000 -0.531000  14.894000
C  10.464000  1.528000  14.501000
H  9.506000  2.028000  14.743000
C  11.453000  2.439000  14.062000
C  12.692000  1.909000  13.680000
H  13.570000  2.589000  13.484000
O  11.125000  3.774000  14.106000
H  11.956000  4.266000  13.786000
H  11.300000 -2.255000  14.125000
14
Lattice="15.91 0.0 0.0 0.0 15.91 0.0 0.0 0.0 15.91" Properties=species:S:1:pos:R:3 pbc="F F F" Time = 0.0 energy = 285.1
H  13.963000  0.030000  12.997000
C  12.975000  0.456000  13.244000
C  11.910000 -0.476000  13.388000
O  12.197000 -1.834000  13.218000
C  10.678000  0.019000  13.841000
H  9.881000 -0.703000  14.013000
C  10.501000  1.342000  14.071000
H  9.504000  1.769000  14.359000
C  11.561000  2.264000  13.973000
C  12.847000  1.822000  13.614000
H  13.750000  2.460000  13.416000
O  11.355000  3.634000  14.192000
H  11.975000  4.183000  13.631000
H  11.389000 -2.424000  13.315000
14
Lattice="15.91 0.0 0.0 0.0 15.91 0.0 0.0 0.0 15.91" Properties=species:S:1:pos:R:3 pbc="F F F" Time = 0.0 energy = 293.5
H  14.030000 -0.305000  12.563000
C  13.127000  0.144000  13.038000
C  12.137000 -0.671000  13.504000
O  12.537000 -1.996000  13.512000
C  10.866000 -0.150000  13.842000
H  10.062000 -0.903000  14.130000
C  10.547000  1.162000  13.714000
H  9.499000  1.545000  14.026000
C  11.535000  2.035000  13.234000
C  12.870000  1.543000  12.904000
H  13.636000  2.254000  12.600000
O  11.183000  3.319000  12.991000
H  11.979000  3.949000  13.133000
H  11.710000 -2.571000  13.466000
14
Lattice="15.91 0.0 0.0 0.0 15.91 0.0 0.0 0.0 15.91" Properties=species:S:1:pos:R:3 pbc="F F F" Time = 0.0 energy = 301.3
H  14.147000 -0.278000  12.547000
C  13.181000  0.142000  12.844000
C  12.141000 -0.705000  13.236000
O  12.319000 -2.080000  13.106000
C  10.964000 -0.206000  13.845000
H  10.274000 -0.963000  14.129000
C  10.870000  1.127000  14.113000
H  9.978000  1.510000  14.519000
C  11.891000  2.041000  13.655000
C  13.073000  1.579000  12.988000
H  13.846000  2.253000  12.617000
O  11.695000  3.397000  13.804000
H  12.426000  3.923000  13.373000
H  11.463000 -2.521000  13.189000
14
Lattice="15.91 0.0 0.0 0.0 15.91 0.0 0.0 0.0 15.91" Properties=species:S:1:pos:R:3 pbc="F F F" Time = 0.0 energy = 296.2
H  14.170000 -0.117000  12.186000
C  13.297000  0.247000  12.724000
C  12.516000 -0.662000  13.476000
O  12.892000 -2.020000  13.597000
C  11.508000 -0.221000  14.296000
H  11.034000 -0.875000  15.060000
C  11.029000  1.138000  14.143000
H  10.127000  1.473000  14.641000
C  11.869000  2.042000  13.368000
C  12.975000  1.572000  12.614000
H  13.638000  2.221000  12.067000
O  11.477000  3.367000  13.298000
H  12.248000  3.937000  13.100000
H  12.052000 -2.523000  13.838000
14
Lattice="15.91 0.0 0.0 0.0 15.91 0.0 0.0 0.0 15.91" Properties=species:S:1:pos:R:3 pbc="F F F" Time = 0.0 energy = 295.3
H  13.821000  0.027000  12.307000
C  13.089000  0.576000  12.892000
C  12.253000 -0.272000  13.636000
O  12.517000 -1.605000  13.720000
C  11.153000  0.245000  14.398000
H  10.624000 -0.369000  15.034000
C  10.967000  1.644000  14.466000
H  10.184000  2.019000  15.073000
C  11.797000  2.460000  13.697000
C  12.767000  1.917000  12.846000
H  13.346000  2.531000  12.181000
O  11.491000  3.823000  13.787000
H  12.223000  4.426000  13.367000
H  11.644000 -2.130000  13.795000
14