20
Lattice="13.13 0.0 0.0 0.0 13.13 0.0 0.0 0.0 13.13" Properties=species:S:1:pos:R:3 pbc="F F F" Time = 0.0 energy = 287.5
H  13.704000  4.239000  6.885000
C  13.321000  4.960000  7.631000
C  13.505000  6.357000  7.522000
O  14.264000  6.934000  6.453000
C  13.038000  7.174000  8.570000
H  13.207000  8.220000  8.457000
C  12.329000  6.686000  9.729000
H  11.967000  7.366000  10.488000
C  12.094000  5.265000  9.759000
C  12.602000  4.440000  8.677000
H  12.532000  3.378000  8.963000
O  11.281000  4.661000  10.686000
C  10.240000  5.504000  11.349000
H  10.654000  6.349000  11.945000
H  9.529000  5.801000  10.525000
H  9.758000  4.773000  12.032000
C  13.422000  7.407000  5.355000
H  12.940000  6.636000  4.760000
H  12.762000  8.180000  5.732000
H  14.138000  7.889000  4.655000
20
Lattice="13.13 0.0 0.0 0.0 13.13 0.0 0.0 0.0 13.13" Properties=species:S:1:pos:R:3 pbc="F F F" Time = 0.0 energy = 281.9
H  14.576000  4.875000  7.399000
C  13.693000  5.320000  7.854000
C  13.582000  6.716000  7.592000
O  14.388000  7.260000  6.595000
C  12.693000  7.480000  8.335000
H  12.511000  8.571000  8.254000
C  11.948000  6.890000  9.352000
H  11.240000  7.529000  9.947000
C  12.035000  5.509000  9.645000
C  13.001000  4.731000  8.890000
H  13.231000  3.702000  9.198000
O  11.333000  4.941000  10.648000
C  10.708000  5.820000  11.589000
H  11.396000  6.720000  11.765000
H  9.806000  6.156000  11.059000
H  10.542000  5.200000  12.467000
C  13.984000  7.367000  5.230000
H  13.486000  6.442000  4.865000
H  13.274000  8.208000  5.109000
H  14.826000  7.660000  4.614000
20
Lattice="13.13 0.0 0.0 0.0 13.13 0.0 0.0 0.0 13.13" Properties=species:S:1:pos:R:3 pbc="F F F" Time = 0.0 energy = 280.1
H  14.669000  4.757000  7.634000
C  13.861000  5.390000  7.973000
C  13.824000  6.746000  7.664000
O  14.728000  7.321000  6.795000
C  12.815000  7.546000  8.200000
H  12.683000  8.563000  7.864000
C  11.925000  7.014000  9.197000
H  11.262000  7.727000  9.596000
C  12.088000  5.722000  9.579000
C  13.023000  4.860000  8.982000
H  13.073000  3.862000  9.357000
O  11.451000  5.063000  10.614000
C  10.761000  5.790000  11.676000
H  11.350000  6.503000  12.212000
H  9.810000  6.296000  11.405000
H  10.467000  5.024000  12.461000
C  14.180000  7.159000  5.401000
H  13.925000  6.144000  5.137000
H  13.270000  7.748000  5.346000
H  14.987000  7.502000  4.731000
20
Lattice="13.13 0.0 0.0 0.0 13.13 0.0 0.0 0.0 13.13" Properties=species:S:1:pos:R:3 pbc="F F F" Time = 0.0 energy = 281.5
H  14.662000  4.754000  7.367000
C  13.936000  5.387000  7.845000
C  13.976000  6.808000  7.603000
O  14.926000  7.336000  6.673000
C  13.054000  7.615000  8.262000
H  13.005000  8.695000  8.061000
C  12.232000  7.179000  9.268000
H  11.538000  7.870000  9.755000
C  12.250000  5.777000  9.595000
C  13.073000  4.899000  8.841000
H  13.006000  3.901000  9.188000
O  11.605000  5.232000  10.726000
C  10.470000  5.962000  11.141000
H  10.710000  6.929000  11.646000
H  9.745000  6.197000  10.309000
H  9.968000  5.272000  11.814000
C  14.778000  6.935000  5.333000
H  15.104000  5.905000  5.193000
H  13.796000  7.258000  4.962000
H  15.526000  7.566000  4.762000
20
Lattice="13.13 0.0 0.0 0.0 13.13 0.0 0.0 0.0 13.13" Properties=species:S:1:pos:R:3 pbc="F F F" Time = 0.0 energy = 278.2
H  14.092000  4.791000  6.874000
C  13.710000  5.451000  7.623000
C  13.938000  6.793000  7.588000
O  14.888000  7.374000  6.669000
C  13.404000  7.666000  8.520000
H  13.610000  8.773000  8.433000
C  12.562000  7.204000  9.537000
H  12.051000  7.858000  10.238000
C  12.247000  5.807000  9.611000
C  12.868000  4.960000  8.654000
H  12.704000  3.896000  8.730000
O  11.335000  5.253000  10.515000
C  10.040000  5.887000  10.485000
H  10.033000  6.756000  11.125000
H  9.740000  6.153000  9.441000
H  9.382000  5.068000  10.911000
C  14.659000  7.019000  5.268000
H  14.226000  6.042000  5.140000
H  13.949000  7.703000  4.810000
H  15.636000  7.101000  4.756000
20
Lattice="13.13 0.0 0.0 0.0 13.13 0.0 0.0 0.0 13.13" Properties=species:S:1:pos:R:3 pbc="F F F" Time = 0.0 energy = 283.1
H  13.817000  4.237000  7.659000
C  13.284000  5.060000  8.153000
C  13.614000  6.417000  7.948000
O  14.738000  6.720000  7.157000
C  12.936000  7.403000  8.647000
H  13.210000  8.462000  8.553000
C  11.915000  7.047000  9.616000
H  11.481000  7.861000  10.168000
C  11.583000  5.699000  9.832000
C  12.277000  4.756000  9.059000
H  11.921000  3.740000  9.253000
O  10.577000  5.369000  10.659000
C  10.295000  6.209000  11.797000
H  11.232000  6.498000  12.283000
H  9.654000  7.106000  11.542000
H  9.652000  5.610000  12.510000
C  14.613000  6.244000  5.759000
H  15.409000  6.767000  5.209000
H  14.869000  5.166000  5.680000
H  13.639000  6.474000  5.345000
20
Lattice="13.13 0.0 0.0 0.0 13.13 0.0 0.0 0.0 13.13" Properties=species:S:1:pos:R:3 pbc="F F F" Time = 0.0 energy = 279.6
H  13.746000  4.235000  7.548000
C  13.218000  5.013000  8.111000
C  13.643000  6.330000  7.961000
O  14.710000  6.702000  7.144000
C  12.960000  7.334000  8.677000
H  13.360000  8.336000  8.524000
C  12.007000  7.049000  9.586000
H  11.451000  7.823000  10.075000
C  11.571000  5.680000  9.793000
C  12.205000  4.673000  9.009000
H  11.985000  3.596000  9.098000
O  10.599000  5.246000  10.741000
C  10.341000  6.252000  11.875000
H  11.222000  6.732000  12.319000
H  9.690000  7.092000  11.459000
H  9.796000  5.607000  12.638000
C  14.594000  6.237000  5.742000
H  15.206000  6.918000  5.134000
H  14.940000  5.188000  5.718000
H  13.570000  6.237000  5.412000
20
Lattice="13.13 0.0 0.0 0.0 13.13 0.0 0.0 0.0 13.13" Properties=species:S:1:pos:R:3 pbc="F F F" Time = 0.0 energy = 279.8
H  13.443000  4.098000  7.385000
C  13.121000  4.916000  8.030000
C  13.631000  6.207000  7.989000
O  14.692000  6.632000  7.132000
C  13.049000  7.185000  8.739000
H  13.364000  8.237000  8.641000
C  12.032000  6.949000  9.631000
H  11.593000  7.743000  10.210000
C  11.657000  5.597000  9.797000
C  12.091000  4.632000  8.941000
H  11.545000  3.661000  9.035000
O  10.849000  5.162000  10.806000
C  10.466000  6.236000  11.785000
H  11.265000  6.924000  12.083000
H  9.666000  6.896000  11.302000
H  10.037000  5.582000  12.623000
C  14.529000  6.172000  5.682000
H  14.860000  7.020000  5.077000
H  15.143000  5.268000  5.574000
H  13.512000  5.865000  5.470000
20
Lattice="13.13 0.0 0.0 0.0 13.13 0.0 0.0 0.0 13.13" Properties=species:S:1:pos:R:3 pbc="F F F" Time = 0.0 energy = 290.5
H  13.502000  4.156000  7.281000
C  13.092000  4.882000  7.997000
C  13.633000  6.160000  7.959000
O  14.676000  6.580000  7.107000
C  13.069000  7.221000  8.715000
H  13.471000  8.221000  8.656000
C  12.055000  6.923000  9.705000
H  11.593000  7.768000  10.250000
C  11.688000  5.607000  9.831000
C  12.092000  4.619000  8.888000
H  11.616000  3.676000  8.903000
O  10.890000  5.156000  10.817000
C  10.478000  6.215000  11.754000
H  11.272000  6.885000  12.128000
H  9.679000  6.751000  11.275000
H  10.131000  5.737000  12.616000
C  14.532000  6.169000  5.730000
H  14.769000  7.004000  5.032000
H  15.210000  5.314000  5.539000
H  13.500000  5.834000  5.455000
20
Lattice="13.13 0.0 0.0 0.0 13.13 0.0 0.0 0.0 13.13" Properties=species:S:1:pos:R:3 pbc="F F F" Time = 0.0 energy = 291.4
H  14.231000  4.190000  7.199000
C  13.581000  4.939000  7.747000
C  13.758000  6.288000  7.484000
O  14.703000  6.701000  6.562000
C  13.168000  7.275000  8.279000
H  13.339000  8.320000  8.090000
C  12.208000  6.965000  9.252000
H  11.760000  7.756000  9.860000
C  11.923000  5.582000  9.517000
C  12.641000  4.580000  8.793000
H  12.492000  3.541000  8.924000
O  10.988000  5.167000  10.395000
C  10.525000  6.188000  11.424000
H  11.433000  6.635000  11.787000
H  9.767000  6.905000  10.985000
H  10.102000  5.585000  12.260000
C  14.270000  6.907000  5.178000
H  15.079000  7.458000  4.710000
H  14.167000  5.941000  4.682000
H  13.396000  7.598000  5.131000
20
Lattice="13.13 0.0 0.0 0.0 13.13 0.0 0.0 0.0 13.13" Properties=species:S:1:pos:R:3 pbc="F F F" Time = 0.0 energy = 283.5
H  14.146000  4.362000  7.480000
C  13.604000  5.085000  7.991000
C  13.778000  6.419000  7.645000
O  14.756000  6.629000  6.606000
C  13.011000  7.416000  8.197000
H  13.056000  8.504000  7.981000
C  12.026000  7.117000  9.184000
H  11.220000  7.833000  9.466000
C  11.878000  5.755000  9.530000
C  12.615000  4.768000  8.920000
H  12.470000  3.716000  9.194000
O  10.942000  5.296000  10.449000
C  10.357000  6.183000  11.395000
H  11.149000  6.337000  12.148000
H  9.941000  7.101000  11.014000
H  9.535000  5.553000  11.815000
C  14.133000  7.167000  5.428000
H  14.888000  7.274000  4.649000
H  13.341000  6.500000  5.047000
H  13.758000  8.143000  5.638000
20
Lattice="13.13 0.0 0.0 0.0 13.13 0.0 0.0 0.0 13.13" Properties=species:S:1:pos:R:3 pbc="F F F" Time = 0.0 energy = 278.8
H  14.109000  4.214000  7.674000
C  13.566000  5.026000  8.080000
C  13.641000  6.357000  7.595000
O  14.635000  6.680000  6.604000
C  12.874000  7.308000  8.177000
H  13.012000  8.349000  7.883000
C  11.966000  7.084000  9.260000
H  11.396000  7.986000  9.521000
C  11.799000  5.749000  9.631000
C  12.614000  4.770000  9.062000
H  12.511000  3.799000  9.491000
O  10.853000  5.298000  10.525000
C  10.170000  6.294000  11.325000
H  10.802000  6.494000  12.193000
H  10.070000  7.265000  10.919000
H  9.169000  5.913000  11.668000
C  13.946000  7.206000  5.376000
H  14.666000  7.037000  4.590000
H  12.990000  6.679000  5.203000
H  13.664000  8.228000  5.507000
20
Lattice="13.13 0.0 0.0 0.0 13.13 0.0 0.0 0.0 13.13" Properties=species:S:1:pos:R:3 pbc="F F F" Time = 0.0 energy = 281.6
H  14.137000  4.171000  7.838000
C  13.405000  5.030000  8.109000
C  13.503000  6.312000  7.589000
O  14.423000  6.440000  6.467000
C  12.814000  7.358000  8.245000
H  12.927000  8.348000  7.848000
C  11.895000  7.136000  9.293000
H  11.398000  7.952000  9.815000
C  11.756000  5.787000  9.685000
C  12.532000  4.799000  9.191000
H  12.452000  3.820000  9.649000
O  10.774000  5.372000  10.572000
C  9.984000  6.383000  11.180000
H  10.529000  7.137000  11.722000
H  9.460000  6.967000  10.419000
H  9.260000  5.828000  11.767000
C  13.743000  6.951000  5.227000
H  14.540000  6.936000  4.501000
H  12.896000  6.325000  4.960000
H  13.311000  7.942000  5.449000
20
Lattice="13.13 0.0 0.0 0.0 13.13 0.0 0.0 0.0 13.13" Properties=species:S:1:pos:R:3 pbc="F F F" Time = 0.0 energy = 277.8
H  13.886000  4.016000  7.638000
C  13.245000  4.887000  8.050000
C  13.504000  6.172000  7.597000
O  14.390000  6.382000  6.498000
C  12.789000  7.281000  8.091000
H  12.885000  8.329000  7.776000
C  11.808000  7.076000  9.104000
H  11.220000  7.915000  9.486000
C  11.620000  5.837000  9.644000
C  12.357000  4.717000  9.130000
H  12.233000  3.716000  9.597000
O  10.867000  5.672000  10.789000
C  9.742000  6.439000  10.983000
H  9.907000  7.541000  10.902000
H  8.869000  6.198000  10.305000
H  9.385000  6.190000  12.002000
C  13.687000  6.593000  5.289000
H  14.338000  6.840000  4.447000
H  13.118000  5.679000  5.082000
H  12.936000  7.399000  5.476000
20
Lattice="13.13 0.0 0.0 0.0 13.13 0.0 0.0 0.0 13.13" Properties=species:S:1:pos:R:3 pbc="F F F" Time = 0.0 energy = 268.8
H  13.655000  4.078000  7.733000
C  13.165000  4.913000  8.122000
C  13.373000  6.134000  7.579000
O  14.343000  6.329000  6.553000
C  12.723000  7.265000  7.999000
H  12.984000  8.225000  7.586000
C  11.785000  7.115000  9.049000
H  11.350000  8.020000  9.446000
C  11.588000  5.858000  9.627000
C  12.252000  4.728000  9.153000
H  12.130000  3.777000  9.612000
O  10.861000  5.608000  10.835000
C  9.654000  6.456000  10.905000
H  9.841000  7.488000  10.653000
H  8.906000  6.017000  10.281000
H  9.297000  6.523000  11.950000
C  13.680000  6.430000  5.248000
H  14.477000  6.719000  4.548000
H  13.253000  5.465000  4.892000
H  12.969000  7.242000  5.164000
20
Lattice="13.13 0.0 0.0 0.0 13.13 0.0 0.0 0.0 13.13" Properties=species:S:1:pos:R:3 pbc="F F F" Time = 0.0 energy = 293.4
H  13.853000  4.144000  8.304000
C  13.163000  4.934000  8.514000
C  13.270000  6.064000  7.753000
O  14.263000  6.056000  6.748000
C  12.468000  7.188000  7.943000
H  12.693000  8.069000  7.318000
C  11.405000  7.216000  8.825000
H  10.729000  8.059000  8.926000
C  11.348000  6.086000  9.697000
C  12.171000  4.923000  9.533000
H  12.110000  4.144000  10.260000
O  10.502000  6.000000  10.811000
C  9.453000  7.046000  10.906000
H  9.914000  7.906000  11.450000
H  9.098000  7.513000  9.933000
H  8.663000  6.533000  11.416000
C  13.779000  6.168000  5.347000
H  14.726000  6.480000  4.867000
H  13.433000  5.215000  4.970000
H  12.953000  6.892000  5.256000
20
Lattice="13.13 0.0 0.0 0.0 13.13 0.0 0.0 0.0 13.13" Properties=species:S:1:pos:R:3 pbc="F F F" Time = 0.0 energy = 281.3
H  13.076000  3.912000  7.870000
C  12.772000  4.860000  8.269000
C  13.379000  6.067000  7.876000
O  14.519000  6.065000  7.002000
C  12.851000  7.288000  8.322000
H  13.166000  8.280000  8.012000
C  11.821000  7.312000  9.249000
H  11.451000  8.244000  9.702000
C  11.237000  6.071000  9.731000
C  11.771000  4.881000  9.287000
H  11.300000  3.908000  9.571000
O  10.225000  5.960000  10.639000
C  9.809000  7.015000  11.456000
H  10.600000  7.441000  12.127000
H  9.420000  7.833000  10.898000
H  9.014000  6.608000  12.003000
C  14.165000  6.455000  5.666000
H  14.494000  5.607000  5.025000
H  13.086000  6.644000  5.617000
H  14.594000  7.435000  5.351000
20
Lattice="13.13 0.0 0.0 0.0 13.13 0.0 0.0 0.0 13.13" Properties=species:S:1:pos:R:3 pbc="F F F" Time = 0.0 energy = 285.9
H  13.197000  3.876000  7.892000
C  12.867000  4.839000  8.259000
C  13.447000  6.072000  7.892000
O  14.484000  5.985000  6.940000
C  12.947000  7.271000  8.409000
H  13.299000  8.242000  8.086000
C  11.832000  7.281000  9.302000
H  11.476000  8.237000  9.734000
C  11.236000  6.064000  9.627000
C  11.775000  4.874000  9.140000
H  11.184000  3.999000  9.349000
O  10.271000  5.936000  10.533000
C  9.932000  7.116000  11.309000
H  10.905000  7.535000  11.738000
H  9.407000  7.802000  10.653000
H  9.360000  6.801000  12.146000
C  14.198000  6.379000  5.556000
H  14.331000  5.521000  4.870000
H  13.134000  6.614000  5.531000
H  14.891000  7.199000  5.206000
20
Lattice="13.13 0.0 0.0 0.0 13.13 0.0 0.0 0.0 13.13" Properties=species:S:1:pos:R:3 pbc="F F F" Time = 0.0 energy = 292.2
H  13.551000  3.768000  7.759000
C  13.116000  4.651000  8.158000
C  13.506000  5.955000  7.702000
O  14.432000  6.003000  6.688000
C  12.964000  7.141000  8.165000
H  13.241000  8.073000  7.640000
C  12.033000  7.082000  9.162000
H  11.577000  7.966000  9.559000
C  11.708000  5.799000  9.723000
C  12.280000  4.582000  9.289000
H  11.998000  3.687000  9.810000
O  10.741000  5.637000  10.712000
C  10.216000  6.849000  11.411000
H  10.963000  7.601000  11.472000
H  9.383000  7.222000  10.861000
H  9.947000  6.514000  12.422000
C  13.744000  5.809000  5.413000
H  13.044000  4.968000  5.557000
H  13.242000  6.761000  5.085000
H  14.497000  5.552000  4.684000
20
Lattice="13.13 0.0 0.0 0.0 13.13 0.0 0.0 0.0 13.13" Properties=species:S:1:pos:R:3 pbc="F F F" Time = 0.0 energy = 278.6
H  13.631000  4.023000  7.948000
C  13.090000  4.905000  8.256000
C  13.397000  6.114000  7.590000
O  14.166000  6.108000  6.453000
C  12.958000  7.280000  8.169000
H  13.315000  8.233000  7.847000
C  12.047000  7.186000  9.295000
H  11.671000  8.150000  9.677000
C  11.568000  5.940000  9.734000
C  12.133000  4.782000  9.220000
H  11.861000  3.835000  9.702000
O  10.676000  5.739000  10.742000
C  10.129000  6.883000  11.447000
H  10.858000  7.402000  12.059000
H  9.677000  7.537000  10.791000
H  9.404000  6.335000  12.075000
C  13.472000  6.013000  5.196000
H  13.235000  4.969000  5.031000
H  12.606000  6.713000  5.214000
H  14.223000  6.335000  4.449000
20
Lattice="13.13 0.0 0.0 0.0 13.13 0.0 0.0 0.0 13.13" Properties=species:S:1:pos:R:3 pbc="F F F" Time = 0.0 energy = 277.6
H  13.324000  4.173000  7.653000
C  12.928000  5.054000  8.118000
C  13.266000  6.299000  7.646000
O  14.114000  6.387000  6.559000
C  12.796000  7.436000  8.297000
H  13.168000  8.439000  8.006000
C  11.928000  7.360000  9.417000
H  11.738000  8.247000  9.974000
C  11.460000  6.104000  9.791000
C  11.965000  4.971000  9.142000
H  11.731000  4.001000  9.533000
O  10.739000  5.936000  10.948000
C  10.014000  7.143000  11.386000
H  10.583000  7.759000  12.044000
H  9.666000  7.670000  10.445000
H  9.106000  6.783000  11.884000
C  13.437000  6.392000  5.251000
H  13.161000  5.335000  4.976000
H  12.502000  6.976000  5.174000
H  14.193000  6.759000  4.581000
20
Lattice="13.13 0.0 0.0 0.0 13.13 0.0 0.0 0.0 13.13" Properties=species:S:1:pos:R:3 pbc="F F F" Time = 0.0 energy = 291.2
H  13.556000  4.567000  8.183000
C  12.961000  5.388000  8.542000
C  13.410000  6.632000  8.001000
O  14.489000  6.555000  7.127000
C  12.843000  7.841000  8.406000
H  13.335000  8.692000  7.931000
C  11.786000  7.921000  9.315000
H  11.393000  8.854000  9.686000
C  11.379000  6.675000  9.882000
C  12.004000  5.433000  9.546000
H  11.684000  4.533000  10.110000
O  10.526000  6.559000  10.942000
C  9.781000  7.813000  11.298000
H  10.512000  8.402000  11.952000
H  9.513000  8.315000  10.356000
H  8.870000  7.521000  11.866000
C  14.256000  6.634000  5.706000
H  13.552000  5.764000  5.475000
H  13.730000  7.567000  5.411000
H  15.209000  6.560000  5.194000
20
Lattice="13.13 0.0 0.0 0.0 13.13 0.0 0.0 0.0 13.13" Properties=species:S:1:pos:R:3 pbc="F F F" Time = 0.0 energy = 267.7
H  12.882000  4.414000  7.806000
C  12.683000  5.371000  8.407000
C  13.428000  6.506000  8.078000
O  14.391000  6.346000  7.044000
C  13.109000  7.598000  8.799000
H  13.561000  8.584000  8.552000
C  12.174000  7.648000  9.886000
H  11.968000  8.607000  10.324000
C  11.485000  6.482000  10.196000
C  11.748000  5.335000  9.403000
H  11.354000  4.380000  9.687000
O  10.513000  6.398000  11.120000
C  9.776000  7.577000  11.534000
H  10.358000  8.129000  12.158000
H  9.484000  8.077000  10.606000
H  8.898000  7.158000  12.042000
C  13.987000  6.301000  5.666000
H  13.255000  5.513000  5.438000
H  13.528000  7.301000  5.458000
H  14.920000  6.180000  5.051000
20
Lattice="13.13 0.0 0.0 0.0 13.13 0.0 0.0 0.0 13.13" Properties=species:S:1:pos:R:3 pbc="F F F" Time = 0.0 energy = 285.8
H  12.826000  4.122000  7.902000
C  12.568000  4.995000  8.439000
C  13.224000  6.161000  7.990000
O  14.158000  6.183000  6.955000
C  13.069000  7.379000  8.651000
H  13.605000  8.225000  8.280000
C  12.179000  7.485000  9.756000
H  12.030000  8.464000  10.225000
C  11.348000  6.390000  9.998000
C  11.535000  5.128000  9.317000
H  10.865000  4.278000  9.544000
O  10.268000  6.378000  10.855000
C  10.055000  7.615000  11.589000
H  10.893000  7.926000  12.264000
H  9.776000  8.435000  10.847000
H  9.204000  7.347000  12.173000
C  13.539000  6.242000  5.615000
H  13.038000  5.323000  5.242000
H  12.814000  7.093000  5.561000
H  14.349000  6.462000  4.924000
20
Lattice="13.13 0.0 0.0 0.0 13.13 0.0 0.0 0.0 13.13" Properties=species:S:1:pos:R:3 pbc="F F F" Time = 0.0 energy = 279.1
H  12.397000  3.794000  7.894000
C  12.319000  4.752000  8.331000
C  13.307000  5.710000  7.971000
O  14.315000  5.540000  7.001000
C  13.148000  7.031000  8.412000
H  13.838000  7.730000  8.033000
C  12.162000  7.365000  9.347000
H  12.022000  8.427000  9.615000
C  11.269000  6.404000  9.793000
C  11.368000  5.080000  9.272000
H  10.649000  4.308000  9.596000
O  10.294000  6.628000  10.662000
C  10.004000  7.915000  11.217000
H  10.724000  8.322000  11.874000
H  9.747000  8.622000  10.350000
H  9.117000  7.665000  11.753000
C  13.759000  5.610000  5.704000
H  12.874000  4.965000  5.553000
H  13.493000  6.672000  5.527000
H  14.537000  5.244000  4.982000
20
Lattice="13.13 0.0 0.0 0.0 13.13 0.0 0.0 0.0 13.13" Properties=species:S:1:pos:R:3 pbc="F F F" Time = 0.0 energy = 280.9
H  12.460000  3.787000  7.822000
C  12.303000  4.761000  8.312000
C  13.312000  5.680000  7.982000
O  14.318000  5.521000  7.008000
C  13.158000  7.005000  8.441000
H  13.837000  7.789000  7.995000
C  12.130000  7.381000  9.340000
H  11.982000  8.438000  9.551000
C  11.291000  6.395000  9.769000
C  11.357000  5.072000  9.280000
H  10.680000  4.275000  9.582000
O  10.293000  6.635000  10.672000
C  9.995000  7.933000  11.192000
H  10.717000  8.313000  11.882000
H  9.778000  8.600000  10.424000
H  9.061000  7.727000  11.741000
C  13.753000  5.603000  5.684000
H  12.838000  4.944000  5.592000
H  13.456000  6.645000  5.534000
H  14.524000  5.266000  4.957000
20
Lattice="13.13 0.0 0.0 0.0 13.13 0.0 0.0 0.0 13.13" Properties=species:S:1:pos:R:3 pbc="F F F" Time = 0.0 energy = 291.8
H  12.517000  4.166000  8.137000
C  12.399000  5.192000  8.509000
C  13.226000  6.163000  7.926000
O  14.156000  5.929000  6.882000
C  13.241000  7.445000  8.504000
H  13.930000  8.232000  8.139000
C  12.260000  7.892000  9.397000
H  12.323000  8.911000  9.768000
C  11.408000  6.904000  9.891000
C  11.468000  5.592000  9.496000
H  10.782000  4.868000  9.938000
O  10.313000  6.996000  10.798000
C  9.797000  8.314000  11.239000
H  10.502000  8.779000  11.805000
H  9.495000  8.931000  10.355000
H  8.874000  8.033000  11.810000
C  13.826000  4.709000  6.058000
H  14.332000  3.750000  6.440000
H  12.769000  4.385000  5.978000
H  14.213000  4.831000  5.034000
20
Lattice="13.13 0.0 0.0 0.0 13.13 0.0 0.0 0.0 13.13" Properties=species:S:1:pos:R:3 pbc="F F F" Time = 0.0 energy = 299.9
H  12.427000  4.169000  8.128000
C  12.335000  5.173000  8.532000
C  13.091000  6.194000  7.937000
O  14.002000  5.934000  6.890000
C  13.029000  7.525000  8.452000
H  13.700000  8.220000  7.978000
C  12.115000  7.828000  9.463000
H  12.221000  8.874000  9.829000
C  11.334000  6.816000  9.995000
C  11.368000  5.514000  9.555000
H  10.556000  4.773000  9.841000
O  10.375000  7.182000  10.886000
C  9.984000  8.527000  11.143000
H  10.527000  8.983000  11.876000
H  10.011000  9.158000  10.227000
H  8.957000  8.468000  11.507000
C  13.773000  4.728000  6.133000
H  14.113000  3.786000  6.690000
H  12.698000  4.790000  5.923000
H  14.343000  4.824000  5.158000
20
Lattice="13.13 0.0 0.0 0.0 13.13 0.0 0.0 0.0 13.13" Properties=species:S:1:pos:R:3 pbc="F F F" Time = 0.0 energy = 292.1
H  12.257000  4.287000  8.412000
C  12.266000  5.361000  8.701000
C  13.185000  6.259000  8.150000
O  14.214000  5.883000  7.254000
C  13.085000  7.596000  8.603000
H  13.896000  8.376000  8.451000
C  12.088000  8.037000  9.547000
H  12.026000  9.060000  9.888000
C  11.132000  7.133000  10.009000
C  11.216000  5.780000  9.541000
H  10.422000  5.158000  9.843000
O  10.163000  7.386000  10.964000
C  9.671000  8.701000  11.196000
H  10.478000  9.495000  11.117000
H  8.932000  8.895000  10.506000
H  9.269000  8.663000  12.184000
C  13.938000  4.883000  6.288000
H  13.616000  3.936000  6.796000
H  13.028000  5.193000  5.624000
H  14.852000  4.749000  5.707000
20
Lattice="13.13 0.0 0.0 0.0 13.13 0.0 0.0 0.0 13.13" Properties=species:S:1:pos:R:3 pbc="F F F" Time = 0.0 energy = 305.3
H  12.164000  4.405000  8.671000
C  12.271000  5.313000  9.199000
C  13.190000  6.315000  8.788000
O  14.236000  6.107000  7.883000
C  13.156000  7.633000  9.258000
H  13.825000  8.324000  8.837000
C  12.309000  7.984000  10.341000
H  12.395000  8.980000  10.806000
C  11.370000  7.035000  10.764000
C  11.353000  5.740000  10.209000
H  10.657000  4.999000  10.620000
O  10.387000  7.204000  11.655000
C  9.808000  8.527000  11.550000
H  10.581000  9.345000  11.458000
H  9.197000  8.528000  10.668000
H  9.272000  8.767000  12.558000
C  13.889000  5.129000  6.822000
H  13.941000  4.100000  7.191000
H  12.875000  5.391000  6.402000
H  14.616000  5.388000  5.999000
20
Lattice="13.13 0.0 0.0 0.0 13.13 0.0 0.0 0.0 13.13" Properties=species:S:1:pos:R:3 pbc="F F F" Time = 0.0 energy = 280.2
H  12.816000  4.027000  9.107000
C  12.481000  5.004000  9.238000
C  13.083000  5.993000  8.467000
O  14.090000  5.577000  7.552000
C  12.623000  7.290000  8.517000
H  13.084000  8.123000  7.995000
C  11.555000  7.680000  9.340000
H  11.326000  8.728000  9.429000
C  11.006000  6.697000  10.213000
C  11.499000  5.344000  10.154000
H  11.019000  4.586000  10.723000
O  10.105000  7.036000  11.251000
C  9.836000  8.393000  11.411000
H  10.755000  8.931000  11.706000
H  9.435000  8.973000  10.486000
H  9.204000  8.500000  12.283000
C  13.629000  5.750000  6.200000
H  12.563000  5.337000  6.052000
H  13.668000  6.829000  5.983000
H  14.325000  5.290000  5.483000
20
Lattice="13.13 0.0 0.0 0.0 13.13 0.0 0.0 0.0 13.13" Properties=species:S:1:pos:R:3 pbc="F F F" Time = 0.0 energy = 275.7
H  13.013000  4.141000  9.162000
C  12.649000  5.135000  9.093000
C  13.007000  6.101000  8.133000
O  14.179000  5.969000  7.425000
C  12.373000  7.333000  8.205000
H  12.638000  8.051000  7.390000
C  11.432000  7.660000  9.206000
H  11.146000  8.670000  9.349000
C  11.119000  6.705000  10.137000
C  11.676000  5.419000  10.039000
H  11.307000  4.703000  10.704000
O  10.114000  6.998000  11.151000
C  9.796000  8.384000  11.409000
H  10.657000  9.058000  11.404000
H  9.069000  8.669000  10.624000
H  9.379000  8.443000  12.362000
C  13.960000  5.638000  5.979000
H  12.898000  5.246000  5.912000
H  14.103000  6.452000  5.291000
H  14.569000  4.783000  5.761000
20
Lattice="13.13 0.0 0.0 0.0 13.13 0.0 0.0 0.0 13.13" Properties=species:S:1:pos:R:3 pbc="F F F" Time = 0.0 energy = 289.3
H  13.967000  4.238000  8.764000
C  13.227000  4.997000  8.677000
C  13.351000  5.969000  7.652000
O  14.600000  5.891000  6.909000
C  12.539000  7.105000  7.570000
H  12.799000  7.923000  6.880000
C  11.631000  7.295000  8.613000
H  11.029000  8.185000  8.541000
C  11.420000  6.333000  9.611000
C  12.241000  5.202000  9.659000
H  12.301000  4.539000  10.469000
O  10.499000  6.463000  10.728000
C  9.507000  7.471000  10.424000
H  9.915000  8.469000  10.463000
H  9.128000  7.208000  9.453000
H  8.751000  7.404000  11.257000
C  14.460000  6.417000  5.530000
H  13.813000  7.295000  5.424000
H  15.461000  6.646000  5.215000
H  14.151000  5.595000  4.827000
20
Lattice="13.13 0.0 0.0 0.0 13.13 0.0 0.0 0.0 13.13" Properties=species:S:1:pos:R:3 pbc="F F F" Time = 0.0 energy = 297.2
H  13.915000  4.126000  8.620000
C  13.285000  5.029000  8.720000
C  13.454000  6.013000  7.693000
O  14.453000  5.826000  6.840000
C  12.572000  7.052000  7.694000
H  12.726000  7.779000  6.876000
C  11.553000  7.245000  8.664000
H  10.824000  7.937000  8.459000
C  11.436000  6.315000  9.708000
C  12.264000  5.158000  9.694000
H  12.137000  4.384000  10.411000
O  10.447000  6.393000  10.702000
C  9.515000  7.525000  10.578000
H  9.933000  8.481000  10.743000
H  9.154000  7.534000  9.542000
H  8.611000  7.317000  11.209000
C  14.453000  6.602000  5.523000
H  13.619000  7.298000  5.409000
H  15.344000  7.212000  5.453000
H  14.281000  5.836000  4.729000
20
Lattice="13.13 0.0 0.0 0.0 13.13 0.0 0.0 0.0 13.13" Properties=species:S:1:pos:R:3 pbc="F F F" Time = 0.0 energy = 294.2
H  13.841000  4.229000  8.494000
C  13.183000  5.071000  8.654000
C  13.309000  6.051000  7.702000
O  14.306000  5.784000  6.710000
C  12.533000  7.193000  7.687000
H  12.823000  7.976000  6.955000
C  11.518000  7.383000  8.671000
H  10.950000  8.247000  8.732000
C  11.342000  6.299000  9.576000
C  12.206000  5.209000  9.609000
H  12.087000  4.527000  10.379000
O  10.385000  6.255000  10.554000
C  9.515000  7.411000  10.784000
H  10.098000  8.334000  11.084000
H  8.819000  7.478000  9.951000
H  8.809000  7.113000  11.659000
C  14.251000  6.459000  5.453000
H  13.281000  6.911000  5.335000
H  15.055000  7.150000  5.328000
H  14.408000  5.631000  4.726000
20
Lattice="13.13 0.0 0.0 0.0 13.13 0.0 0.0 0.0 13.13" Properties=species:S:1:pos:R:3 pbc="F F F" Time = 0.0 energy = 285.0
H  13.658000  4.152000  8.370000
C  13.105000  5.130000  8.559000
C  13.287000  6.131000  7.611000
O  14.275000  5.853000  6.588000
C  12.497000  7.262000  7.730000
H  12.669000  8.133000  7.051000
C  11.511000  7.424000  8.758000
H  10.939000  8.335000  8.834000
C  11.267000  6.294000  9.634000
C  12.125000  5.195000  9.540000
H  11.937000  4.441000  10.343000
O  10.212000  6.232000  10.565000
C  9.532000  7.367000  10.940000
H  10.183000  8.261000  11.082000
H  8.792000  7.747000  10.185000
H  9.131000  7.093000  11.968000
C  13.984000  6.277000  5.248000
H  12.936000  6.093000  5.051000
H  14.202000  7.326000  5.079000
H  14.597000  5.614000  4.635000
20
Lattice="13.13 0.0 0.0 0.0 13.13 0.0 0.0 0.0 13.13" Properties=species:S:1:pos:R:3 pbc="F F F" Time = 0.0 energy = 283.4
H  13.652000  4.150000  8.366000
C  13.108000  5.126000  8.561000
C  13.283000  6.127000  7.609000
O  14.275000  5.860000  6.591000
C  12.497000  7.267000  7.730000
H  12.671000  8.137000  7.065000
C  11.515000  7.416000  8.754000
H  10.941000  8.359000  8.823000
C  11.270000  6.292000  9.628000
C  12.124000  5.199000  9.527000
H  11.952000  4.443000  10.351000
O  10.213000  6.233000  10.568000
C  9.531000  7.372000  10.947000
H  10.197000  8.246000  11.069000
H  8.788000  7.755000  10.178000
H  9.135000  7.091000  11.954000
C  13.977000  6.273000  5.244000
H  12.933000  6.076000  5.039000
H  14.172000  7.335000  5.090000
H  14.588000  5.616000  4.641000
20
Lattice="13.13 0.0 0.0 0.0 13.13 0.0 0.0 0.0 13.13" Properties=species:S:1:pos:R:3 pbc="F F F" Time = 0.0 energy = 284.2
H  13.750000  4.686000  8.231000
C  13.073000  5.469000  8.405000
C  13.081000  6.610000  7.620000
O  14.064000  6.620000  6.576000
C  12.198000  7.667000  7.735000
H  12.202000  8.408000  6.993000
C  11.377000  7.667000  8.831000
H  10.811000  8.639000  8.988000
C  11.346000  6.588000  9.745000
C  12.231000  5.462000  9.540000
H  12.084000  4.584000  10.114000
O  10.624000  6.517000  10.930000
C  9.448000  7.397000  11.174000
H  9.851000  8.415000  11.196000
H  8.760000  7.257000  10.268000
H  9.122000  7.057000  12.125000
C  13.670000  5.984000  5.374000
H  13.928000  4.905000  5.383000
H  12.549000  6.124000  5.206000
H  14.321000  6.409000  4.581000
20