
                                 *****************
                                 * O   R   C   A *
                                 *****************

           --- An Ab Initio, DFT and Semiempirical electronic structure package ---

                  #######################################################
                  #                        -***-                        #
                  #          Department of theory and spectroscopy      #
                  #               Directorship: Frank Neese             #
                  #        Max Planck Institute fuer Kohlenforschung    #
                  #                Kaiser Wilhelm Platz 1               #
                  #                 D-45470 Muelheim/Ruhr               #
                  #                      Germany                        #
                  #                                                     #
                  #                  All rights reserved                #
                  #                        -***-                        #
                  #######################################################


                         Program Version 4.2.1 -  RELEASE  -


 With contributions from (in alphabetic order):
   Daniel Aravena         : Magnetic Suceptibility
   Michael Atanasov       : Ab Initio Ligand Field Theory (pilot matlab implementation)
   Alexander A. Auer      : GIAO ZORA, VPT2
   Ute Becker             : Parallelization
   Giovanni Bistoni       : ED, misc. LED, open-shell LED, HFLD
   Martin Brehm           : Molecular dynamics
   Dmytro Bykov           : SCF Hessian
   Vijay G. Chilkuri      : MRCI spin determinant printing, contributions to CSF-ICE
   Dipayan Datta          : RHF DLPNO-CCSD density
   Achintya Kumar Dutta   : EOM-CC, STEOM-CC
   Dmitry Ganyushin       : Spin-Orbit,Spin-Spin,Magnetic field MRCI
   Miquel Garcia          : C-PCM Hessian, Gaussian charge scheme
   Yang Guo               : DLPNO-NEVPT2, CIM, IAO-localization
   Andreas Hansen         : Spin unrestricted coupled pair/coupled cluster methods
   Benjamin Helmich-Paris : CASSCF linear response (MC-RPA)
   Lee Huntington         : MR-EOM, pCC
   Robert Izsak           : Overlap fitted RIJCOSX, COSX-SCS-MP3, EOM
   Christian Kollmar      : KDIIS, OOCD, Brueckner-CCSD(T), CCSD density
   Simone Kossmann        : Meta GGA functionals, TD-DFT gradient, OOMP2, MP2 Hessian
   Martin Krupicka        : AUTO-CI
   Lucas Lang             : DCDCAS
   Dagmar Lenk            : GEPOL surface, SMD
   Dimitrios Liakos       : Extrapolation schemes; Compound Job, initial MDCI parallelization
   Dimitrios Manganas     : Further ROCIS development; embedding schemes
   Dimitrios Pantazis     : SARC Basis sets
   Taras Petrenko         : DFT Hessian,TD-DFT gradient, ASA, ECA, R-Raman, ABS, FL, XAS/XES, NRVS
   Peter Pinski           : DLPNO-MP2, DLPNO-MP2 Gradient
   Christoph Reimann      : Effective Core Potentials
   Marius Retegan         : Local ZFS, SOC
   Christoph Riplinger    : Optimizer, TS searches, QM/MM, DLPNO-CCSD(T), (RO)-DLPNO pert. Triples
   Tobias Risthaus        : Range-separated hybrids, TD-DFT gradient, RPA, STAB
   Michael Roemelt        : Original ROCIS implementation
   Masaaki Saitow         : Open-shell DLPNO-CCSD energy and density
   Barbara Sandhoefer     : DKH picture change effects
   Avijit Sen             : IP-ROCIS
   Kantharuban Sivalingam : CASSCF convergence, NEVPT2, FIC-MRCI
   Bernardo de Souza      : ESD, SOC TD-DFT
   Georgi Stoychev        : AutoAux, RI-MP2 NMR
   Willem Van den Heuvel  : Paramagnetic NMR
   Boris Wezisla          : Elementary symmetry handling
   Frank Wennmohs         : Technical directorship


 We gratefully acknowledge several colleagues who have allowed us to
 interface, adapt or use parts of their codes:
   Stefan Grimme, W. Hujo, H. Kruse,             : VdW corrections, initial TS optimization,
                  C. Bannwarth                     DFT functionals, gCP, sTDA/sTD-DF
   Ed Valeev, F. Pavosevic, A. Kumar             : LibInt (2-el integral package), F12 methods
   Garnet Chan, S. Sharma, J. Yang, R. Olivares  : DMRG
   Ulf Ekstrom                                   : XCFun DFT Library
   Mihaly Kallay                                 : mrcc  (arbitrary order and MRCC methods)
   Andreas Klamt, Michael Diedenhofen            : otool_cosmo (COSMO solvation model)
   Jiri Pittner, Ondrej Demel                    : Mk-CCSD
   Frank Weinhold                                : gennbo (NPA and NBO analysis)
   Christopher J. Cramer and Donald G. Truhlar   : smd solvation model
   Lars Goerigk                                  : TD-DFT with DH, B97 family of functionals
   V. Asgeirsson, H. Jonsson                     : NEB implementation
   FAccTs GmbH                                   : IRC, NEB, NEB-TS, Multilevel, MM, QM/MM, CI optimization
   S Lehtola, MJT Oliveira, MAL Marques          : LibXC Library


 Your calculation uses the libint2 library for the computation of 2-el integrals
 For citations please refer to: http://libint.valeyev.net

 Your ORCA version has been built with support for libXC version: 4.2.3
 For citations please refer to: https://tddft.org/programs/libxc/

 This ORCA versions uses:
   CBLAS   interface :  Fast vector & matrix operations
   LAPACKE interface :  Fast linear algebra routines
   SCALAPACK package :  Parallel linear algebra routines


----- Orbital basis set information -----
Your calculation utilizes the basis: def2-TZVP
   F. Weigend and R. Ahlrichs, Phys. Chem. Chem. Phys. 7, 3297 (2005).

----- AuxC basis set information -----
Your calculation utilizes the auxiliary basis: def2-TZVP/C
  H-La, Hf-Rn : A. Hellweg, C. Hattig, S. Hofener and W. Klopper, Theor. Chem. Acc. 117, 587 (2007).
        Ce-Lu : J. Chmela and M. E. Harding, Mol. Phys. (2018).

----- AuxJK basis set information -----
Your calculation utilizes the auxiliary basis: def2/JK
   H-Ba, Hf-Rn: F. Weigend, J. Comput. Chem. 29, 167 (2008).

================================================================================
                                        WARNINGS
                       Please study these warnings very carefully!
================================================================================


WARNING: MDCI localization with Augmented Hessian Foster-Boys
  ===> : Switching off randomization!

WARNING: Post HF methods need fully converged wavefunctions
  ===> : Setting SCFConvForced true
         You can overwrite this default with %scf ConvForced false 


INFO   : the flag for use of LIBINT has been found!

================================================================================
                                       INPUT FILE
================================================================================
NAME = 1,2-dimethoxybenzene.inp
|  1> ! STEOM-DLPNO-CCSD RIJK def2-TZVP def2/JK def2-TZVP/C verytightSCF CPCM(Water)
|  2> %maxcore 1500
|  3> %pal
|  4> nprocs 8
|  5> end
|  6> %mdci 
|  7> nroots 10
|  8> DoSOLV true
|  9> maxiter 100
| 10> end
| 11> * xyz 0 1
| 12> H  7.610000  8.549000  6.561000
| 13> C  6.662000  8.314000  7.005000
| 14> C  6.434000  7.785000  8.245000
| 15> H  7.243000  7.476000  8.875000
| 16> C  5.088000  7.353000  8.644000
| 17> H  4.879000  6.817000  9.643000
| 18> C  3.990000  7.639000  7.837000
| 19> O  2.614000  7.417000  8.095000
| 20> C  4.272000  8.336000  6.625000
| 21> C  5.553000  8.644000  6.198000
| 22> H  5.754000  9.029000  5.203000
| 23> O  3.149000  8.680000  5.949000
| 24> C  2.246000  6.947000  9.376000
| 25> H  2.753000  7.584000  10.096000
| 26> H  1.137000  7.024000  9.547000
| 27> H  2.556000  5.854000  9.524000
| 28> C  3.281000  9.349000  4.714000
| 29> H  2.250000  9.760000  4.470000
| 30> H  3.956000  10.228000  4.696000
| 31> H  3.510000  8.621000  3.915000
| 32> **                         ****END OF INPUT****
================================================================================

                       ****************************
                       * Single Point Calculation *
                       ****************************

---------------------------------
CARTESIAN COORDINATES (ANGSTROEM)
---------------------------------
  H      7.610000    8.549000    6.561000
  C      6.662000    8.314000    7.005000
  C      6.434000    7.785000    8.245000
  H      7.243000    7.476000    8.875000
  C      5.088000    7.353000    8.644000
  H      4.879000    6.817000    9.643000
  C      3.990000    7.639000    7.837000
  O      2.614000    7.417000    8.095000
  C      4.272000    8.336000    6.625000
  C      5.553000    8.644000    6.198000
  H      5.754000    9.029000    5.203000
  O      3.149000    8.680000    5.949000
  C      2.246000    6.947000    9.376000
  H      2.753000    7.584000   10.096000
  H      1.137000    7.024000    9.547000
  H      2.556000    5.854000    9.524000
  C      3.281000    9.349000    4.714000
  H      2.250000    9.760000    4.470000
  H      3.956000   10.228000    4.696000
  H      3.510000    8.621000    3.915000

----------------------------
CARTESIAN COORDINATES (A.U.)
----------------------------
  NO LB      ZA    FRAG     MASS         X           Y           Z
   0 H     1.0000    0     1.008   14.380816   16.155269   12.398493
   1 C     6.0000    0    12.011   12.589356   15.711183   13.237532
   2 C     6.0000    0    12.011   12.158498   14.711518   15.580792
   3 H     1.0000    0     1.008   13.687286   14.127593   16.771319
   4 C     6.0000    0    12.011    9.614927   13.895156   16.334793
   5 H     1.0000    0     1.008    9.219974   12.882263   18.222629
   6 C     6.0000    0    12.011    7.540007   14.435618   14.809784
   7 O     8.0000    0    15.999    4.939744   14.016099   15.297333
   8 C     6.0000    0    12.011    8.072910   15.752757   12.519436
   9 C     6.0000    0    12.011   10.493649   16.334793   11.712523
  10 H     1.0000    0     1.008   10.873484   17.062337    9.832245
  11 O     8.0000    0    15.999    5.950748   16.402823   11.241981
  12 C     6.0000    0    12.011    4.244325   13.127927   17.718072
  13 H     1.0000    0     1.008    5.202416   14.331683   19.078675
  14 H     1.0000    0     1.008    2.148619   13.273436   18.041215
  15 H     1.0000    0     1.008    4.830140   11.062457   17.997752
  16 C     6.0000    0    12.011    6.200191   17.667050    8.908169
  17 H     1.0000    0     1.008    4.251884   18.443727    8.447076
  18 H     1.0000    0     1.008    7.475757   19.328119    8.874154
  19 H     1.0000    0     1.008    6.632939   16.291329    7.398278

--------------------------------
INTERNAL COORDINATES (ANGSTROEM)
--------------------------------
 H      0   0   0     0.000000000000     0.00000000     0.00000000
 C      1   0   0     1.072876973376     0.00000000     0.00000000
 C      2   1   0     1.367269176132   127.40257273     0.00000000
 H      3   2   1     1.070916429979   121.27770020   354.86293821
 C      3   2   1     1.468857038653   120.86075236   188.18928037
 H      5   3   2     1.152813081119   122.56614570   174.34393810
 C      5   3   2     1.392353762519   120.31683964   351.32262007
 O      7   5   3     1.417470987357   128.89212514   186.07051088
 C      7   5   3     1.426280827888   115.91125168     1.14197065
 C      9   7   5     1.384974367994   123.61020902     4.39123807
 H     10   9   7     1.085656943974   122.18601781   169.87219180
 O      9   7   5     1.355153496841   112.58769255   185.30402151
 C      8   7   5     1.413253338931   118.02394623     5.99342005
 H     13   8   7     1.086838534466   106.50438170    48.79715955
 H     13   8   7     1.124744859957   111.82583690   167.29957522
 H     13   8   7     1.145710696467   111.33984900   288.48620321
 C     12   9   7     1.410748028530   118.65484932   181.44069990
 H     17  12   9     1.136405737402   105.93718139   193.90539830
 H     17  12   9     1.108417791268   116.56807859   310.49951224
 H     17  12   9     1.104909951082   109.87633304    80.14015298

---------------------------
INTERNAL COORDINATES (A.U.)
---------------------------
 H      0   0   0     0.000000000000     0.00000000     0.00000000
 C      1   0   0     2.027443655071     0.00000000     0.00000000
 C      2   1   0     2.583764294241   127.40257273     0.00000000
 H      3   2   1     2.023738764978   121.27770020   354.86293821
 C      3   2   1     2.775737532936   120.86075236   188.18928037
 H      5   3   2     2.178501006918   122.56614570   174.34393810
 C      5   3   2     2.631167292695   120.31683964   351.32262007
 O      7   5   3     2.678631968884   128.89212514   186.07051088
 C      7   5   3     2.695280154770   115.91125168     1.14197065
 C      9   7   5     2.617222258009   123.61020902     4.39123807
 H     10   9   7     2.051594299502   122.18601781   169.87219180
 O      9   7   5     2.560868978455   112.58769255   185.30402151
 C      8   7   5     2.670661768430   118.02394623     5.99342005
 H     13   8   7     2.053827181933   106.50438170    48.79715955
 H     13   8   7     2.125459755855   111.82583690   167.29957522
 H     13   8   7     2.165079445028   111.33984900   288.48620321
 C     12   9   7     2.665927417890   118.65484932   181.44069990
 H     17  12   9     2.147495620706   105.93718139   193.90539830
 H     17  12   9     2.094606067463   116.56807859   310.49951224
 H     17  12   9     2.087977210189   109.87633304    80.14015298

---------------------
BASIS SET INFORMATION
---------------------
There are 3 groups of distinct atoms

 Group   1 Type H   : 5s1p contracted to 3s1p pattern {311/1}
 Group   2 Type C   : 11s6p2d1f contracted to 5s3p2d1f pattern {62111/411/11/1}
 Group   3 Type O   : 11s6p2d1f contracted to 5s3p2d1f pattern {62111/411/11/1}

Atom   0H    basis set group =>   1
Atom   1C    basis set group =>   2
Atom   2C    basis set group =>   2
Atom   3H    basis set group =>   1
Atom   4C    basis set group =>   2
Atom   5H    basis set group =>   1
Atom   6C    basis set group =>   2
Atom   7O    basis set group =>   3
Atom   8C    basis set group =>   2
Atom   9C    basis set group =>   2
Atom  10H    basis set group =>   1
Atom  11O    basis set group =>   3
Atom  12C    basis set group =>   2
Atom  13H    basis set group =>   1
Atom  14H    basis set group =>   1
Atom  15H    basis set group =>   1
Atom  16C    basis set group =>   2
Atom  17H    basis set group =>   1
Atom  18H    basis set group =>   1
Atom  19H    basis set group =>   1
---------------------------------
AUXILIARY/C BASIS SET INFORMATION
---------------------------------
There are 3 groups of distinct atoms

 Group   1 Type H   : 4s3p2d contracted to 4s2p1d pattern {1111/21/2}
 Group   2 Type C   : 8s6p5d3f1g contracted to 8s6p4d3f1g pattern {11111111/111111/2111/111/1}
 Group   3 Type O   : 8s6p5d3f1g contracted to 8s6p4d3f1g pattern {11111111/111111/2111/111/1}

Atom   0H    basis set group =>   1
Atom   1C    basis set group =>   2
Atom   2C    basis set group =>   2
Atom   3H    basis set group =>   1
Atom   4C    basis set group =>   2
Atom   5H    basis set group =>   1
Atom   6C    basis set group =>   2
Atom   7O    basis set group =>   3
Atom   8C    basis set group =>   2
Atom   9C    basis set group =>   2
Atom  10H    basis set group =>   1
Atom  11O    basis set group =>   3
Atom  12C    basis set group =>   2
Atom  13H    basis set group =>   1
Atom  14H    basis set group =>   1
Atom  15H    basis set group =>   1
Atom  16C    basis set group =>   2
Atom  17H    basis set group =>   1
Atom  18H    basis set group =>   1
Atom  19H    basis set group =>   1
----------------------------------
AUXILIARY/JK BASIS SET INFORMATION
----------------------------------
There are 3 groups of distinct atoms

 Group   1 Type H   : 4s2p2d contracted to 2s2p2d pattern {31/11/11}
 Group   2 Type C   : 14s10p6d2f1g contracted to 10s8p5d1f1g pattern {5111111111/31111111/21111/2/1}
 Group   3 Type O   : 14s10p6d2f1g contracted to 10s8p4d2f1g pattern {5111111111/31111111/3111/11/1}

Atom   0H    basis set group =>   1
Atom   1C    basis set group =>   2
Atom   2C    basis set group =>   2
Atom   3H    basis set group =>   1
Atom   4C    basis set group =>   2
Atom   5H    basis set group =>   1
Atom   6C    basis set group =>   2
Atom   7O    basis set group =>   3
Atom   8C    basis set group =>   2
Atom   9C    basis set group =>   2
Atom  10H    basis set group =>   1
Atom  11O    basis set group =>   3
Atom  12C    basis set group =>   2
Atom  13H    basis set group =>   1
Atom  14H    basis set group =>   1
Atom  15H    basis set group =>   1
Atom  16C    basis set group =>   2
Atom  17H    basis set group =>   1
Atom  18H    basis set group =>   1
Atom  19H    basis set group =>   1


           ************************************************************
           *        Program running with 8 parallel MPI-processes     *
           *              working on a common directory               *
           ************************************************************
------------------------------------------------------------------------------
                           ORCA GTO INTEGRAL CALCULATION
                           -- RI-GTO INTEGRALS CHOSEN --
------------------------------------------------------------------------------

                         BASIS SET STATISTICS AND STARTUP INFO

Gaussian basis set:
 # of primitive gaussian shells          ...  260
 # of primitive gaussian functions       ...  540
 # of contracted shells                  ...  150
 # of contracted basis functions         ...  370
 Highest angular momentum                ...    3
 Maximum contraction depth               ...    6
Auxiliary gaussian basis set:
 # of primitive gaussian shells          ...  410
 # of primitive gaussian functions       ... 1170
 # of contracted shells                  ...  310
 # of contracted aux-basis functions     ...  934
 Highest angular momentum                ...    4
 Maximum contraction depth               ...    5
Ratio of auxiliary to basis functions    ...  2.52
Integral package used                  ... LIBINT
 One Electron integrals                  ... done
 Ordering auxiliary basis shells         ... done
 Integral threshhold             Thresh  ...  1.000e-12
 Primitive cut-off               TCut    ...  1.000e-14
 Pre-screening matrix                    ... done
 Shell pair data                         ... 
 Ordering of the shell pairs             ... done (   0.002 sec) 9903 of 11325 pairs
 Determination of significant pairs      ... done (   0.000 sec)
 Creation of shell pair data             ... done (   0.001 sec)
 Storage of shell pair data              ... done (   0.001 sec)
 Shell pair data done in (   0.003 sec)
 Computing two index integrals           ... done
 Cholesky decomposition of the V-matrix  ... done


Timings:
 Total evaluation time                   ...   0.272 sec (  0.005 min)
 One electron matrix time                ...   0.056 sec (  0.001 min) = 20.7%
 Schwartz matrix evaluation time         ...   0.141 sec (  0.002 min) = 51.9%
 Two index repulsion integral time       ...   0.015 sec (  0.000 min) =  5.4%
 Cholesky decomposition of V             ...   0.039 sec (  0.001 min) = 14.4%
 Three index repulsion integral time     ...   0.000 sec (  0.000 min) =  0.0%



           ************************************************************
           *        Program running with 8 parallel MPI-processes     *
           *              working on a common directory               *
           ************************************************************
-------------------------------------------------------------------------------
                                 ORCA SCF
-------------------------------------------------------------------------------

------------
SCF SETTINGS
------------
Hamiltonian:
 Ab initio Hamiltonian  Method          .... Hartree-Fock(GTOs)
 RI-approximation to the Coulomb term is turned on
   Number of auxiliary basis functions  .... 934
   RI-JK (J+K treated both via RI)      .... on


General Settings:
 Integral files         IntName         .... 1,2-dimethoxybenzene
 Hartree-Fock type      HFTyp           .... RHF
 Total Charge           Charge          ....    0
 Multiplicity           Mult            ....    1
 Number of Electrons    NEL             ....   74
 Basis Dimension        Dim             ....  370
 Nuclear Repulsion      ENuc            ....    517.3008956760 Eh

Convergence Acceleration:
 DIIS                   CNVDIIS         .... on
   Start iteration      DIISMaxIt       ....    12
   Startup error        DIISStart       ....  0.200000
   # of expansion vecs  DIISMaxEq       ....     5
   Bias factor          DIISBfac        ....   1.050
   Max. coefficient     DIISMaxC        ....  10.000
 Newton-Raphson         CNVNR           .... off
 SOSCF                  CNVSOSCF        .... on
   Start iteration      SOSCFMaxIt      ....   150
   Startup grad/error   SOSCFStart      ....  0.003300
 Level Shifting         CNVShift        .... on
   Level shift para.    LevelShift      ....    0.2500
   Turn off err/grad.   ShiftErr        ....    0.0010
 Zerner damping         CNVZerner       .... off
 Static damping         CNVDamp         .... on
   Fraction old density DampFac         ....    0.7000
   Max. Damping (<1)    DampMax         ....    0.9800
   Min. Damping (>=0)   DampMin         ....    0.0000
   Turn off err/grad.   DampErr         ....    0.1000
 Fernandez-Rico         CNVRico         .... off

SCF Procedure:
 Maximum # iterations   MaxIter         ....   125
 SCF integral mode      SCFMode         .... Direct
   Integral package                     .... LIBINT
 Reset frequency        DirectResetFreq ....    20
 Integral Threshold     Thresh          ....  1.000e-12 Eh
 Primitive CutOff       TCut            ....  1.000e-14 Eh

Convergence Tolerance:
 Convergence Check Mode ConvCheckMode   .... Total+1el-Energy
 Convergence forced     ConvForced      .... 1
 Energy Change          TolE            ....  1.000e-09 Eh
 1-El. energy change                    ....  1.000e-06 Eh
 Orbital Gradient       TolG            ....  2.000e-06
 Orbital Rotation angle TolX            ....  2.000e-06
 DIIS Error             TolErr          ....  1.000e-08


Diagonalization of the overlap matrix:
Smallest eigenvalue                        ... 1.788e-05
Time for diagonalization                   ...    0.035 sec
Threshold for overlap eigenvalues          ... 1.000e-08
Number of eigenvalues below threshold      ... 0
Time for construction of square roots      ...    0.035 sec
Total time needed                          ...    0.071 sec

-------------------
DFT GRID GENERATION
-------------------

General Integration Accuracy     IntAcc      ...  4.340
Radial Grid Type                 RadialGrid  ... Gauss-Chebyshev
Angular Grid (max. acc.)         AngularGrid ... Lebedev-110
Angular grid pruning method      GridPruning ... 3 (G Style)
Weight generation scheme         WeightScheme... Becke
Basis function cutoff            BFCut       ...    1.0000e-12
Integration weight cutoff        WCut        ...    1.0000e-14
Grids for H and He will be reduced by one unit

# of grid points (after initial pruning)     ...  24620 (   0.0 sec)
# of grid points (after weights+screening)   ...  22701 (   0.0 sec)
nearest neighbour list constructed           ...    0.0 sec
Grid point re-assignment to atoms done       ...    0.0 sec
Grid point division into batches done        ...    0.0 sec
Reduced shell lists constructed in    0.1 sec

Total number of grid points                  ...    22701
Total number of batches                      ...      365
Average number of points per batch           ...       62
Average number of grid points per atom       ...     1135
Average number of shells per batch           ...    89.79 (59.86%)
Average number of basis functions per batch  ...   223.87 (60.51%)
Average number of large shells per batch     ...    69.49 (77.39%)
Average number of large basis fcns per batch ...   174.38 (77.89%)
Average number of aux-shells per batch       ...    89.79 (28.96%)
Average number of aux functions per batch    ...   223.87 (23.97%)
Maximum spatial batch extension              ...  15.26, 30.81, 21.83 au
Average spatial batch extension              ...   0.43,  0.81,  0.60 au

Time for grid setup =    0.127 sec

------------------------------
INITIAL GUESS: MODEL POTENTIAL
------------------------------
Loading Hartree-Fock densities                     ... done
Calculating cut-offs                               ... done
Setting up the integral package                    ... done
Initializing the effective Hamiltonian             ... done
Starting the Coulomb interaction                   ... done (   0.0 sec)
Reading the grid                                   ... done
Mapping shells                                     ... done
Starting the XC term evaluation                    ... done (   0.0 sec)
Transforming the Hamiltonian                       ... done (   0.0 sec)
Diagonalizing the Hamiltonian                      ... done (   0.0 sec)
Back transforming the eigenvectors                 ... done (   0.0 sec)
Now organizing SCF variables                       ... done
                      ------------------
                      INITIAL GUESS DONE (   0.3 sec)
                      ------------------

--------------------
CPCM SOLVATION MODEL
--------------------
CPCM parameters:
  Epsilon                                         ...      80.4000
  Refrac                                          ...       1.3300
  Rsolv                                           ...       1.3000
  Surface type                                    ...    GEPOL SES
  Epsilon function type                           ...         CPCM
Radii:
 Radius for H  used is    2.4566 Bohr (=   1.3000 Ang.)
 Radius for C  used is    3.7795 Bohr (=   2.0000 Ang.)
 Radius for O  used is    3.2503 Bohr (=   1.7200 Ang.)
Calculating surface                               ...        done! (  0.0s)
GEPOL surface points                              ...          629
GEPOL Volume                                      ...    1180.9336
GEPOL Surface-area                                ...     654.5146
Calculating surface distance matrix               ...        done! (  0.0s)
Performing Cholesky decomposition & store         ...        done! (  0.0s)
Overall time for CPCM initialization              ...                 0.0s
--------------
SCF ITERATIONS
--------------
ITER       Energy         Delta-E        Max-DP      RMS-DP      [F,P]     Damp
  0   -458.2374429939   0.000000000000 0.02679403  0.00072019  0.3005570 0.7000
  1   -458.1460818648   0.091361129152 0.03061215  0.00080194  0.2487972 0.7000
                               ***Turning on DIIS***
  2   -458.1902058614  -0.044123996589 0.02803745  0.00063448  0.1790374 0.7000
  3   -459.3156689541  -1.125463092730 0.01534235  0.00037116  0.1242600 0.7000
  4   -458.7138685801   0.601800374028 0.04774960  0.00101040  0.0830713 0.0000
  5   -458.5882708307   0.125597749357 0.01717231  0.00027583  0.0198685 0.0000
  6   -458.5324499592   0.055820871526 0.00436570  0.00009336  0.0072157 0.0000
  7   -458.5553601658  -0.022910206591 0.00196062  0.00004868  0.0044781 0.0000
                      *** Initiating the SOSCF procedure ***
                           *** Shutting down DIIS ***
                      *** Re-Reading the Fockian *** 
                      *** Removing any level shift *** 
ITER      Energy       Delta-E        Grad      Rot      Max-DP    RMS-DP
  8   -458.56438746  -0.0090272913  0.001043  0.001043  0.001904  0.000042
  9   -458.61115746  -0.0467700033  0.000502  0.001164  0.000657  0.000013
 10   -458.61116030  -0.0000028357  0.000186  0.000703  0.000959  0.000014
 11   -458.61116144  -0.0000011406  0.000068  0.000352  0.000367  0.000005
 12   -458.61116161  -0.0000001766  0.000028  0.000139  0.000047  0.000002
 13   -458.61116165  -0.0000000346  0.000006  0.000032  0.000096  0.000001
 14   -458.61116165  -0.0000000043  0.000002  0.000005  0.000052  0.000001
 15   -458.61116165  -0.0000000006  0.000001  0.000003  0.000011  0.000000
 16   -458.61116165  -0.0000000001  0.000001  0.000002  0.000001  0.000000
                  ***Gradient check signals convergence***
              ***Rediagonalizing the Fockian in SOSCF/NRSCF***

               *****************************************************
               *                     SUCCESS                       *
               *           SCF CONVERGED AFTER  17 CYCLES          *
               *****************************************************


----------------
TOTAL SCF ENERGY
----------------

Total Energy       :         -458.61116165 Eh          -12479.44415 eV

Components:
Nuclear Repulsion  :          517.30089568 Eh           14076.47301 eV
Electronic Energy  :         -975.91205733 Eh          -26555.91716 eV
One Electron Energy:        -1651.22896751 Eh          -44932.22452 eV
Two Electron Energy:          675.31691018 Eh           18376.30736 eV
CPCM Dielectric    :           -0.01564828 Eh              -0.42581 eV

Virial components:
Potential Energy   :         -916.16023858 Eh          -24929.98751 eV
Kinetic Energy     :          457.54907692 Eh           12450.54336 eV
Virial Ratio       :            2.00232125

CPCM Solvation Model Properties:
Surface-charge          :           -0.02911660
Charge-correction       :           -0.00031207 Eh              -0.00849 eV
Free-energy (cav+disp)  :            0.00408075 Eh               0.11104 eV
Corrected G(solv)       :         -458.60739297 Eh          -12479.34160 eV

---------------
SCF CONVERGENCE
---------------

  Last Energy change         ...   -1.3301e-11  Tolerance :   1.0000e-09
  Last MAX-Density change    ...    1.7210e-06  Tolerance :   1.0000e-08
  Last RMS-Density change    ...    2.4199e-08  Tolerance :   1.0000e-09
  Last Orbital Gradient      ...    3.0767e-07  Tolerance :   2.0000e-06
  Last Orbital Rotation      ...    1.1920e-06  Tolerance :   2.0000e-06

             **** THE GBW FILE WAS UPDATED (1,2-dimethoxybenzene.gbw) ****
             **** DENSITY FILE WAS UPDATED (1,2-dimethoxybenzene.scfp) ****
             **** ENERGY FILE WAS UPDATED (1,2-dimethoxybenzene.en.tmp) ****
             **** THE GBW FILE WAS UPDATED (1,2-dimethoxybenzene.gbw) ****
             **** DENSITY FILE WAS UPDATED (1,2-dimethoxybenzene.scfp) ****
----------------
ORBITAL ENERGIES
----------------

  NO   OCC          E(Eh)            E(eV) 
   0   2.0000     -20.587366      -560.2107 
   1   2.0000     -20.585584      -560.1622 
   2   2.0000     -11.307367      -307.6891 
   3   2.0000     -11.305114      -307.6278 
   4   2.0000     -11.281796      -306.9933 
   5   2.0000     -11.280237      -306.9509 
   6   2.0000     -11.255454      -306.2765 
   7   2.0000     -11.237760      -305.7950 
   8   2.0000     -11.234840      -305.7155 
   9   2.0000     -11.230981      -305.6105 
  10   2.0000      -1.422489       -38.7079 
  11   2.0000      -1.388122       -37.7727 
  12   2.0000      -1.143669       -31.1208 
  13   2.0000      -1.029517       -28.0146 
  14   2.0000      -1.008553       -27.4441 
  15   2.0000      -0.934655       -25.4333 
  16   2.0000      -0.928461       -25.2647 
  17   2.0000      -0.814501       -22.1637 
  18   2.0000      -0.809926       -22.0392 
  19   2.0000      -0.721825       -19.6418 
  20   2.0000      -0.685403       -18.6508 
  21   2.0000      -0.679937       -18.5020 
  22   2.0000      -0.662263       -18.0211 
  23   2.0000      -0.639480       -17.4011 
  24   2.0000      -0.628480       -17.1018 
  25   2.0000      -0.606940       -16.5157 
  26   2.0000      -0.601341       -16.3633 
  27   2.0000      -0.572609       -15.5815 
  28   2.0000      -0.533425       -14.5152 
  29   2.0000      -0.524282       -14.2664 
  30   2.0000      -0.516519       -14.0552 
  31   2.0000      -0.492679       -13.4065 
  32   2.0000      -0.482371       -13.1260 
  33   2.0000      -0.473660       -12.8889 
  34   2.0000      -0.461758       -12.5651 
  35   2.0000      -0.336522        -9.1572 
  36   2.0000      -0.310447        -8.4477 
  37   0.0000       0.121154         3.2968 
  38   0.0000       0.131616         3.5815 
  39   0.0000       0.153974         4.1899 
  40   0.0000       0.159875         4.3504 
  41   0.0000       0.171182         4.6581 
  42   0.0000       0.197625         5.3777 
  43   0.0000       0.197964         5.3869 
  44   0.0000       0.219860         5.9827 
  45   0.0000       0.226314         6.1583 
  46   0.0000       0.229403         6.2424 
  47   0.0000       0.238299         6.4845 
  48   0.0000       0.243106         6.6152 
  49   0.0000       0.245355         6.6764 
  50   0.0000       0.254953         6.9376 
  51   0.0000       0.270918         7.3721 
  52   0.0000       0.312034         8.4909 
  53   0.0000       0.315930         8.5969 
  54   0.0000       0.322151         8.7662 
  55   0.0000       0.330642         8.9972 
  56   0.0000       0.333897         9.0858 
  57   0.0000       0.344282         9.3684 
  58   0.0000       0.349256         9.5037 
  59   0.0000       0.354450         9.6451 
  60   0.0000       0.357309         9.7229 
  61   0.0000       0.382893        10.4191 
  62   0.0000       0.392193        10.6721 
  63   0.0000       0.399927        10.8826 
  64   0.0000       0.427586        11.6352 
  65   0.0000       0.436988        11.8911 
  66   0.0000       0.453242        12.3333 
  67   0.0000       0.464536        12.6407 
  68   0.0000       0.480220        13.0675 
  69   0.0000       0.495985        13.4964 
  70   0.0000       0.500096        13.6083 
  71   0.0000       0.504189        13.7197 
  72   0.0000       0.507012        13.7965 
  73   0.0000       0.513602        13.9758 
  74   0.0000       0.527437        14.3523 
  75   0.0000       0.535747        14.5784 
  76   0.0000       0.541409        14.7325 
  77   0.0000       0.555183        15.1073 
  78   0.0000       0.569099        15.4860 
  79   0.0000       0.575734        15.6665 
  80   0.0000       0.586630        15.9630 
  81   0.0000       0.603948        16.4343 
  82   0.0000       0.609065        16.5735 
  83   0.0000       0.614700        16.7268 
  84   0.0000       0.625608        17.0237 
  85   0.0000       0.626717        17.0538 
  86   0.0000       0.632220        17.2036 
  87   0.0000       0.636988        17.3333 
  88   0.0000       0.657846        17.9009 
  89   0.0000       0.660331        17.9685 
  90   0.0000       0.668858        18.2006 
  91   0.0000       0.689841        18.7715 
  92   0.0000       0.714087        19.4313 
  93   0.0000       0.716153        19.4875 
  94   0.0000       0.729269        19.8444 
  95   0.0000       0.731164        19.8960 
  96   0.0000       0.749245        20.3880 
  97   0.0000       0.772787        21.0286 
  98   0.0000       0.789860        21.4932 
  99   0.0000       0.797418        21.6989 
 100   0.0000       0.814913        22.1749 
 101   0.0000       0.827758        22.5244 
 102   0.0000       0.838773        22.8242 
 103   0.0000       0.846646        23.0384 
 104   0.0000       0.871215        23.7070 
 105   0.0000       0.884157        24.0591 
 106   0.0000       0.893737        24.3198 
 107   0.0000       0.907205        24.6863 
 108   0.0000       0.931391        25.3444 
 109   0.0000       0.952849        25.9283 
 110   0.0000       0.966569        26.3017 
 111   0.0000       0.979650        26.6576 
 112   0.0000       0.986239        26.8369 
 113   0.0000       1.007788        27.4233 
 114   0.0000       1.030549        28.0427 
 115   0.0000       1.052241        28.6329 
 116   0.0000       1.070156        29.1204 
 117   0.0000       1.079667        29.3792 
 118   0.0000       1.083581        29.4857 
 119   0.0000       1.111039        30.2329 
 120   0.0000       1.121736        30.5240 
 121   0.0000       1.143196        31.1079 
 122   0.0000       1.151028        31.3211 
 123   0.0000       1.167171        31.7603 
 124   0.0000       1.174486        31.9594 
 125   0.0000       1.188160        32.3315 
 126   0.0000       1.211466        32.9657 
 127   0.0000       1.253575        34.1115 
 128   0.0000       1.284758        34.9600 
 129   0.0000       1.291858        35.1532 
 130   0.0000       1.304542        35.4984 
 131   0.0000       1.306351        35.5476 
 132   0.0000       1.363004        37.0892 
 133   0.0000       1.374126        37.3919 
 134   0.0000       1.388973        37.7959 
 135   0.0000       1.415676        38.5225 
 136   0.0000       1.425740        38.7964 
 137   0.0000       1.446635        39.3649 
 138   0.0000       1.478680        40.2369 
 139   0.0000       1.488800        40.5123 
 140   0.0000       1.494849        40.6769 
 141   0.0000       1.520557        41.3764 
 142   0.0000       1.539288        41.8862 
 143   0.0000       1.568520        42.6816 
 144   0.0000       1.628984        44.3269 
 145   0.0000       1.639127        44.6029 
 146   0.0000       1.673509        45.5385 
 147   0.0000       1.693541        46.0836 
 148   0.0000       1.703457        46.3534 
 149   0.0000       1.706962        46.4488 
 150   0.0000       1.740657        47.3657 
 151   0.0000       1.752256        47.6813 
 152   0.0000       1.756669        47.8014 
 153   0.0000       1.762123        47.9498 
 154   0.0000       1.785782        48.5936 
 155   0.0000       1.797025        48.8995 
 156   0.0000       1.806340        49.1530 
 157   0.0000       1.815239        49.3952 
 158   0.0000       1.820611        49.5413 
 159   0.0000       1.835213        49.9387 
 160   0.0000       1.837756        50.0079 
 161   0.0000       1.861256        50.6474 
 162   0.0000       1.889927        51.4275 
 163   0.0000       1.894071        51.5403 
 164   0.0000       1.917798        52.1859 
 165   0.0000       1.957122        53.2560 
 166   0.0000       1.965515        53.4844 
 167   0.0000       1.975633        53.7597 
 168   0.0000       1.991154        54.1821 
 169   0.0000       2.004407        54.5427 
 170   0.0000       2.024103        55.0786 
 171   0.0000       2.050250        55.7901 
 172   0.0000       2.060344        56.0648 
 173   0.0000       2.133990        58.0688 
 174   0.0000       2.136296        58.1316 
 175   0.0000       2.138810        58.2000 
 176   0.0000       2.145819        58.3907 
 177   0.0000       2.160440        58.7886 
 178   0.0000       2.170708        59.0680 
 179   0.0000       2.183314        59.4110 
 180   0.0000       2.206305        60.0366 
 181   0.0000       2.231034        60.7095 
 182   0.0000       2.244909        61.0871 
 183   0.0000       2.251080        61.2550 
 184   0.0000       2.260277        61.5053 
 185   0.0000       2.277034        61.9613 
 186   0.0000       2.330464        63.4152 
 187   0.0000       2.334930        63.5367 
 188   0.0000       2.372949        64.5712 
 189   0.0000       2.388200        64.9862 
 190   0.0000       2.401777        65.3557 
 191   0.0000       2.410374        65.5896 
 192   0.0000       2.453003        66.7496 
 193   0.0000       2.461477        66.9802 
 194   0.0000       2.475719        67.3677 
 195   0.0000       2.531162        68.8764 
 196   0.0000       2.547620        69.3243 
 197   0.0000       2.554003        69.4980 
 198   0.0000       2.568466        69.8915 
 199   0.0000       2.597551        70.6829 
 200   0.0000       2.601822        70.7992 
 201   0.0000       2.624146        71.4066 
 202   0.0000       2.625292        71.4378 
 203   0.0000       2.644110        71.9499 
 204   0.0000       2.651760        72.1581 
 205   0.0000       2.663563        72.4792 
 206   0.0000       2.708297        73.6965 
 207   0.0000       2.718499        73.9741 
 208   0.0000       2.738760        74.5255 
 209   0.0000       2.767594        75.3101 
 210   0.0000       2.780798        75.6694 
 211   0.0000       2.812225        76.5245 
 212   0.0000       2.819578        76.7246 
 213   0.0000       2.828709        76.9731 
 214   0.0000       2.850484        77.5656 
 215   0.0000       2.857789        77.7644 
 216   0.0000       2.878486        78.3276 
 217   0.0000       2.897766        78.8522 
 218   0.0000       2.901087        78.9426 
 219   0.0000       2.919240        79.4366 
 220   0.0000       2.925522        79.6075 
 221   0.0000       2.957537        80.4787 
 222   0.0000       2.975089        80.9563 
 223   0.0000       2.982731        81.1642 
 224   0.0000       2.992684        81.4351 
 225   0.0000       2.999070        81.6088 
 226   0.0000       3.013715        82.0074 
 227   0.0000       3.043285        82.8120 
 228   0.0000       3.069896        83.5361 
 229   0.0000       3.077068        83.7313 
 230   0.0000       3.095225        84.2254 
 231   0.0000       3.114937        84.7617 
 232   0.0000       3.126756        85.0834 
 233   0.0000       3.141273        85.4784 
 234   0.0000       3.144056        85.5541 
 235   0.0000       3.162995        86.0695 
 236   0.0000       3.171819        86.3096 
 237   0.0000       3.191088        86.8339 
 238   0.0000       3.206247        87.2464 
 239   0.0000       3.213426        87.4418 
 240   0.0000       3.253713        88.5380 
 241   0.0000       3.267524        88.9139 
 242   0.0000       3.290936        89.5509 
 243   0.0000       3.310794        90.0913 
 244   0.0000       3.322130        90.3998 
 245   0.0000       3.366943        91.6192 
 246   0.0000       3.378365        91.9300 
 247   0.0000       3.402287        92.5809 
 248   0.0000       3.416654        92.9719 
 249   0.0000       3.420395        93.0737 
 250   0.0000       3.430330        93.3440 
 251   0.0000       3.454293        93.9961 
 252   0.0000       3.467479        94.3549 
 253   0.0000       3.473711        94.5245 
 254   0.0000       3.499158        95.2169 
 255   0.0000       3.507144        95.4342 
 256   0.0000       3.519086        95.7592 
 257   0.0000       3.529046        96.0302 
 258   0.0000       3.541930        96.3808 
 259   0.0000       3.556739        96.7838 
 260   0.0000       3.565592        97.0247 
 261   0.0000       3.581195        97.4493 
 262   0.0000       3.598695        97.9255 
 263   0.0000       3.608605        98.1951 
 264   0.0000       3.619183        98.4830 
 265   0.0000       3.623195        98.5921 
 266   0.0000       3.643550        99.1460 
 267   0.0000       3.648218        99.2731 
 268   0.0000       3.657481        99.5251 
 269   0.0000       3.681598       100.1814 
 270   0.0000       3.694750       100.5393 
 271   0.0000       3.710478       100.9672 
 272   0.0000       3.720858       101.2497 
 273   0.0000       3.723048       101.3093 
 274   0.0000       3.752154       102.1013 
 275   0.0000       3.763289       102.4043 
 276   0.0000       3.779172       102.8365 
 277   0.0000       3.805201       103.5448 
 278   0.0000       3.813662       103.7750 
 279   0.0000       3.830945       104.2453 
 280   0.0000       3.841281       104.5266 
 281   0.0000       3.864857       105.1681 
 282   0.0000       3.869543       105.2956 
 283   0.0000       3.883695       105.6807 
 284   0.0000       3.898992       106.0970 
 285   0.0000       3.905119       106.2637 
 286   0.0000       3.925998       106.8318 
 287   0.0000       3.936999       107.1312 
 288   0.0000       3.948703       107.4497 
 289   0.0000       3.994676       108.7007 
 290   0.0000       4.016216       109.2868 
 291   0.0000       4.046232       110.1036 
 292   0.0000       4.108426       111.7960 
 293   0.0000       4.129219       112.3618 
 294   0.0000       4.138339       112.6099 
 295   0.0000       4.180717       113.7631 
 296   0.0000       4.216793       114.7448 
 297   0.0000       4.233651       115.2035 
 298   0.0000       4.325431       117.7010 
 299   0.0000       4.353615       118.4679 
 300   0.0000       4.389399       119.4416 
 301   0.0000       4.424673       120.4015 
 302   0.0000       4.453978       121.1989 
 303   0.0000       4.467623       121.5702 
 304   0.0000       4.479731       121.8997 
 305   0.0000       4.483757       122.0092 
 306   0.0000       4.505508       122.6011 
 307   0.0000       4.522275       123.0574 
 308   0.0000       4.547832       123.7528 
 309   0.0000       4.569909       124.3535 
 310   0.0000       4.577886       124.5706 
 311   0.0000       4.614041       125.5544 
 312   0.0000       4.649748       126.5261 
 313   0.0000       4.695918       127.7824 
 314   0.0000       4.715055       128.3032 
 315   0.0000       4.742991       129.0634 
 316   0.0000       4.763908       129.6325 
 317   0.0000       4.786695       130.2526 
 318   0.0000       4.859226       132.2262 
 319   0.0000       4.897630       133.2713 
 320   0.0000       4.909796       133.6023 
 321   0.0000       4.918730       133.8455 
 322   0.0000       4.958133       134.9176 
 323   0.0000       5.011366       136.3662 
 324   0.0000       5.103931       138.8850 
 325   0.0000       5.115187       139.1913 
 326   0.0000       5.172447       140.7494 
 327   0.0000       5.293320       144.0386 
 328   0.0000       5.331423       145.0754 
 329   0.0000       5.408586       147.1751 
 330   0.0000       5.471249       148.8802 
 331   0.0000       5.508542       149.8951 
 332   0.0000       5.572205       151.6274 
 333   0.0000       5.627161       153.1228 
 334   0.0000       5.741690       156.2393 
 335   0.0000       5.797797       157.7661 
 336   0.0000       5.807544       158.0313 
 337   0.0000       5.832007       158.6970 
 338   0.0000       5.846519       159.0919 
 339   0.0000       6.057541       164.8341 
 340   0.0000       6.162923       167.7017 
 341   0.0000       6.272352       170.6794 
 342   0.0000       6.290336       171.1688 
 343   0.0000       6.361543       173.1064 
 344   0.0000       6.412358       174.4891 
 345   0.0000       6.547842       178.1758 
 346   0.0000       6.669845       181.4957 
 347   0.0000       6.751868       183.7277 
 348   0.0000       6.932343       188.6386 
 349   0.0000       7.095863       193.0882 
 350   0.0000       7.141469       194.3292 
 351   0.0000       7.172935       195.1855 
 352   0.0000       7.255850       197.4417 
 353   0.0000       7.349454       199.9888 
 354   0.0000       7.366878       200.4629 
 355   0.0000       7.420200       201.9139 
 356   0.0000       7.699629       209.5176 
 357   0.0000       7.707030       209.7190 
 358   0.0000       7.873994       214.2623 
 359   0.0000       7.982316       217.2098 
 360   0.0000      23.211151       631.6075 
 361   0.0000      23.368590       635.8917 
 362   0.0000      23.427569       637.4966 
 363   0.0000      23.541660       640.6011 
 364   0.0000      23.742229       646.0589 
 365   0.0000      23.872015       649.5905 
 366   0.0000      23.912300       650.6868 
 367   0.0000      24.365672       663.0237 
 368   0.0000      45.710910      1243.8571 
 369   0.0000      45.968888      1250.8770 

                    ********************************
                    * MULLIKEN POPULATION ANALYSIS *
                    ********************************

-----------------------
MULLIKEN ATOMIC CHARGES
-----------------------
   0 H :    0.166451
   1 C :   -0.159536
   2 C :   -0.215121
   3 H :    0.160050
   4 C :   -0.195987
   5 H :    0.193137
   6 C :    0.154599
   7 O :   -0.393986
   8 C :    0.331096
   9 C :   -0.292960
  10 H :    0.177530
  11 O :   -0.381378
  12 C :   -0.176940
  13 H :    0.126881
  14 H :    0.153429
  15 H :    0.126437
  16 C :   -0.182677
  17 H :    0.138282
  18 H :    0.139176
  19 H :    0.131517
Sum of atomic charges:    0.0000000

--------------------------------
MULLIKEN REDUCED ORBITAL CHARGES
--------------------------------
  0 H s       :     0.809989  s :     0.809989
      pz      :     0.005703  p :     0.023560
      px      :     0.013264
      py      :     0.004593
  1 C s       :     3.148982  s :     3.148982
      pz      :     0.966984  p :     2.894459
      px      :     0.996733
      py      :     0.930742
      dz2     :     0.028478  d :     0.107215
      dxz     :     0.031919
      dyz     :     0.017947
      dx2y2   :     0.014204
      dxy     :     0.014668
      f0      :     0.001761  f :     0.008880
      f+1     :     0.001493
      f-1     :     0.001061
      f+2     :     0.001738
      f-2     :     0.001203
      f+3     :     0.000781
      f-3     :     0.000842
  2 C s       :     3.170189  s :     3.170189
      pz      :     1.018860  p :     2.937573
      px      :     0.942304
      py      :     0.976409
      dz2     :     0.025205  d :     0.099053
      dxz     :     0.026888
      dyz     :     0.013913
      dx2y2   :     0.016184
      dxy     :     0.016864
      f0      :     0.001627  f :     0.008306
      f+1     :     0.001240
      f-1     :     0.001042
      f+2     :     0.001471
      f-2     :     0.000945
      f+3     :     0.000922
      f-3     :     0.001059
  3 H s       :     0.815959  s :     0.815959
      pz      :     0.007860  p :     0.023991
      px      :     0.010679
      py      :     0.005452
  4 C s       :     3.180146  s :     3.180146
      pz      :     0.974838  p :     2.914427
      px      :     0.909713
      py      :     1.029876
      dz2     :     0.015517  d :     0.093328
      dxz     :     0.030685
      dyz     :     0.010620
      dx2y2   :     0.010453
      dxy     :     0.026054
      f0      :     0.000692  f :     0.008087
      f+1     :     0.001365
      f-1     :     0.000902
      f+2     :     0.001421
      f-2     :     0.001135
      f+3     :     0.001199
      f-3     :     0.001372
  5 H s       :     0.785534  s :     0.785534
      pz      :     0.012251  p :     0.021329
      px      :     0.002937
      py      :     0.006141
  6 C s       :     3.085832  s :     3.085832
      pz      :     0.905135  p :     2.571549
      px      :     0.751389
      py      :     0.915025
      dz2     :     0.029421  d :     0.172496
      dxz     :     0.050916
      dyz     :     0.015407
      dx2y2   :     0.026393
      dxy     :     0.050359
      f0      :     0.002023  f :     0.015525
      f+1     :     0.002653
      f-1     :     0.001300
      f+2     :     0.002631
      f-2     :     0.001587
      f+3     :     0.002363
      f-3     :     0.002968
  7 O s       :     3.759328  s :     3.759328
      pz      :     1.463999  p :     4.593010
      px      :     1.350323
      py      :     1.778687
      dz2     :     0.013341  d :     0.039549
      dxz     :     0.005809
      dyz     :     0.005776
      dx2y2   :     0.010081
      dxy     :     0.004543
      f0      :     0.000334  f :     0.002100
      f+1     :     0.000346
      f-1     :     0.000346
      f+2     :     0.000260
      f-2     :     0.000160
      f+3     :     0.000380
      f-3     :     0.000274
  8 C s       :     3.018675  s :     3.018675
      pz      :     0.813196  p :     2.448464
      px      :     0.757997
      py      :     0.877271
      dz2     :     0.046112  d :     0.184361
      dxz     :     0.035178
      dyz     :     0.021261
      dx2y2   :     0.035148
      dxy     :     0.046662
      f0      :     0.001906  f :     0.017403
      f+1     :     0.003725
      f-1     :     0.001241
      f+2     :     0.003006
      f-2     :     0.002574
      f+3     :     0.002427
      f-3     :     0.002523
  9 C s       :     3.202621  s :     3.202621
      pz      :     1.011133  p :     2.987994
      px      :     0.910812
      py      :     1.066048
      dz2     :     0.018581  d :     0.093701
      dxz     :     0.030280
      dyz     :     0.008372
      dx2y2   :     0.011135
      dxy     :     0.025333
      f0      :     0.000841  f :     0.008645
      f+1     :     0.001526
      f-1     :     0.000823
      f+2     :     0.001587
      f-2     :     0.001016
      f+3     :     0.001319
      f-3     :     0.001532
 10 H s       :     0.798640  s :     0.798640
      pz      :     0.014418  p :     0.023830
      px      :     0.003535
      py      :     0.005877
 11 O s       :     3.758600  s :     3.758600
      pz      :     1.382773  p :     4.577180
      px      :     1.509482
      py      :     1.684924
      dz2     :     0.009523  d :     0.043298
      dxz     :     0.011646
      dyz     :     0.007341
      dx2y2   :     0.008201
      dxy     :     0.006586
      f0      :     0.000334  f :     0.002300
      f+1     :     0.000291
      f-1     :     0.000528
      f+2     :     0.000403
      f-2     :     0.000345
      f+3     :     0.000200
      f-3     :     0.000199
 12 C s       :     3.240150  s :     3.240150
      pz      :     0.704723  p :     2.811987
      px      :     1.093034
      py      :     1.014230
      dz2     :     0.029630  d :     0.115343
      dxz     :     0.021761
      dyz     :     0.030796
      dx2y2   :     0.024300
      dxy     :     0.008855
      f0      :     0.002285  f :     0.009461
      f+1     :     0.001816
      f-1     :     0.002126
      f+2     :     0.000882
      f-2     :     0.001089
      f+3     :     0.000965
      f-3     :     0.000298
 13 H s       :     0.851738  s :     0.851738
      pz      :     0.008188  p :     0.021381
      px      :     0.005853
      py      :     0.007340
 14 H s       :     0.826214  s :     0.826214
      pz      :     0.002366  p :     0.020356
      px      :     0.014843
      py      :     0.003147
 15 H s       :     0.854540  s :     0.854540
      pz      :     0.002072  p :     0.019023
      px      :     0.003508
      py      :     0.013442
 16 C s       :     3.235772  s :     3.235772
      pz      :     0.734806  p :     2.822159
      px      :     1.111739
      py      :     0.975613
      dz2     :     0.033417  d :     0.115321
      dxz     :     0.016599
      dyz     :     0.030369
      dx2y2   :     0.011834
      dxy     :     0.023102
      f0      :     0.002362  f :     0.009425
      f+1     :     0.001164
      f-1     :     0.002479
      f+2     :     0.001290
      f-2     :     0.000918
      f+3     :     0.000641
      f-3     :     0.000570
 17 H s       :     0.841728  s :     0.841728
      pz      :     0.002787  p :     0.019990
      px      :     0.012540
      py      :     0.004663
 18 H s       :     0.840186  s :     0.840186
      pz      :     0.001962  p :     0.020637
      px      :     0.007499
      py      :     0.011176
 19 H s       :     0.847826  s :     0.847826
      pz      :     0.009082  p :     0.020657
      px      :     0.003869
      py      :     0.007706


                     *******************************
                     * LOEWDIN POPULATION ANALYSIS *
                     *******************************

----------------------
LOEWDIN ATOMIC CHARGES
----------------------
   0 H :    0.148368
   1 C :   -0.153191
   2 C :   -0.161458
   3 H :    0.141381
   4 C :   -0.125799
   5 H :    0.165592
   6 C :   -0.176524
   7 O :    0.123159
   8 C :   -0.208775
   9 C :   -0.145307
  10 H :    0.155212
  11 O :    0.176982
  12 C :   -0.307264
  13 H :    0.103175
  14 H :    0.117982
  15 H :    0.112015
  16 C :   -0.302870
  17 H :    0.117906
  18 H :    0.111515
  19 H :    0.107901

-------------------------------
LOEWDIN REDUCED ORBITAL CHARGES
-------------------------------
  0 H s       :     0.790197  s :     0.790197
      pz      :     0.015539  p :     0.061435
      px      :     0.031832
      py      :     0.014064
  1 C s       :     2.759575  s :     2.759575
      pz      :     1.035082  p :     2.940359
      px      :     0.999454
      py      :     0.905823
      dz2     :     0.108563  d :     0.409033
      dxz     :     0.126889
      dyz     :     0.069191
      dx2y2   :     0.055616
      dxy     :     0.048773
      f0      :     0.007563  f :     0.044224
      f+1     :     0.011125
      f-1     :     0.005288
      f+2     :     0.005829
      f-2     :     0.007238
      f+3     :     0.003734
      f-3     :     0.003446
  2 C s       :     2.769234  s :     2.769234
      pz      :     1.033575  p :     2.971771
      px      :     0.988874
      py      :     0.949322
      dz2     :     0.078183  d :     0.380986
      dxz     :     0.138101
      dyz     :     0.046929
      dx2y2   :     0.052611
      dxy     :     0.065161
      f0      :     0.008097  f :     0.039466
      f+1     :     0.008267
      f-1     :     0.005437
      f+2     :     0.004204
      f-2     :     0.005121
      f+3     :     0.003961
      f-3     :     0.004380
  3 H s       :     0.795801  s :     0.795801
      pz      :     0.020205  p :     0.062818
      px      :     0.026394
      py      :     0.016219
  4 C s       :     2.784728  s :     2.784728
      pz      :     0.977176  p :     2.944417
      px      :     1.033051
      py      :     0.934191
      dz2     :     0.069465  d :     0.359604
      dxz     :     0.098943
      dyz     :     0.040341
      dx2y2   :     0.068119
      dxy     :     0.082736
      f0      :     0.003305  f :     0.037050
      f+1     :     0.008730
      f-1     :     0.002321
      f+2     :     0.005340
      f-2     :     0.006405
      f+3     :     0.006566
      f-3     :     0.004381
  5 H s       :     0.781111  s :     0.781111
      pz      :     0.029087  p :     0.053297
      px      :     0.008398
      py      :     0.015812
  6 C s       :     2.715995  s :     2.715995
      pz      :     0.996125  p :     2.749784
      px      :     0.852544
      py      :     0.901115
      dz2     :     0.130627  d :     0.626937
      dxz     :     0.153889
      dyz     :     0.066944
      dx2y2   :     0.134582
      dxy     :     0.140894
      f0      :     0.010465  f :     0.083809
      f+1     :     0.017727
      f-1     :     0.005940
      f+2     :     0.011448
      f-2     :     0.009152
      f+3     :     0.014837
      f-3     :     0.014239
  7 O s       :     3.270091  s :     3.270091
      pz      :     1.474213  p :     4.499454
      px      :     1.368282
      py      :     1.656958
      dz2     :     0.028782  d :     0.101563
      dxz     :     0.024078
      dyz     :     0.014912
      dx2y2   :     0.019903
      dxy     :     0.013888
      f0      :     0.001270  f :     0.005733
      f+1     :     0.001063
      f-1     :     0.000752
      f+2     :     0.000831
      f-2     :     0.000397
      f+3     :     0.000725
      f-3     :     0.000696
  8 C s       :     2.706156  s :     2.706156
      pz      :     0.913976  p :     2.723297
      px      :     0.934652
      py      :     0.874669
      dz2     :     0.139259  d :     0.680272
      dxz     :     0.178190
      dyz     :     0.079043
      dx2y2   :     0.132261
      dxy     :     0.151519
      f0      :     0.010780  f :     0.099050
      f+1     :     0.024445
      f-1     :     0.005592
      f+2     :     0.014098
      f-2     :     0.016292
      f+3     :     0.015220
      f-3     :     0.012624
  9 C s       :     2.755604  s :     2.755604
      pz      :     0.985902  p :     2.974494
      px      :     1.036992
      py      :     0.951601
      dz2     :     0.086724  d :     0.373900
      dxz     :     0.099154
      dyz     :     0.032904
      dx2y2   :     0.073256
      dxy     :     0.081861
      f0      :     0.003955  f :     0.041309
      f+1     :     0.010388
      f-1     :     0.002358
      f+2     :     0.005797
      f-2     :     0.006508
      f+3     :     0.007275
      f-3     :     0.005028
 10 H s       :     0.782869  s :     0.782869
      pz      :     0.034329  p :     0.061919
      px      :     0.010461
      py      :     0.017129
 11 O s       :     3.234188  s :     3.234188
      pz      :     1.390775  p :     4.469091
      px      :     1.499559
      py      :     1.578757
      dz2     :     0.027911  d :     0.113110
      dxz     :     0.031199
      dyz     :     0.021491
      dx2y2   :     0.016002
      dxy     :     0.016507
      f0      :     0.001052  f :     0.006630
      f+1     :     0.001466
      f-1     :     0.000843
      f+2     :     0.000971
      f-2     :     0.001017
      f+3     :     0.000707
      f-3     :     0.000576
 12 C s       :     2.866150  s :     2.866150
      pz      :     0.839685  p :     2.972144
      px      :     1.074868
      py      :     1.057590
      dz2     :     0.124845  d :     0.410353
      dxz     :     0.074351
      dyz     :     0.111956
      dx2y2   :     0.077476
      dxy     :     0.021726
      f0      :     0.015114  f :     0.058617
      f+1     :     0.011347
      f-1     :     0.013632
      f+2     :     0.005663
      f-2     :     0.009149
      f+3     :     0.002615
      f-3     :     0.001096
 13 H s       :     0.834626  s :     0.834626
      pz      :     0.021529  p :     0.062199
      px      :     0.018669
      py      :     0.022001
 14 H s       :     0.825707  s :     0.825707
      pz      :     0.007425  p :     0.056312
      px      :     0.038491
      py      :     0.010396
 15 H s       :     0.834748  s :     0.834748
      pz      :     0.006710  p :     0.053236
      px      :     0.011568
      py      :     0.034959
 16 C s       :     2.859134  s :     2.859134
      pz      :     0.849377  p :     2.975144
      px      :     1.098748
      py      :     1.027019
      dz2     :     0.119027  d :     0.410224
      dxz     :     0.067576
      dyz     :     0.117479
      dx2y2   :     0.034298
      dxy     :     0.071845
      f0      :     0.014123  f :     0.058368
      f+1     :     0.010372
      f-1     :     0.012574
      f+2     :     0.010213
      f-2     :     0.006298
      f+3     :     0.002342
      f-3     :     0.002446
 17 H s       :     0.828593  s :     0.828593
      pz      :     0.007967  p :     0.053501
      px      :     0.032498
      py      :     0.013036
 18 H s       :     0.828472  s :     0.828472
      pz      :     0.007129  p :     0.060013
      px      :     0.022771
      py      :     0.030112
 19 H s       :     0.832629  s :     0.832629
      pz      :     0.023734  p :     0.059470
      px      :     0.013399
      py      :     0.022338


                      *****************************
                      * MAYER POPULATION ANALYSIS *
                      *****************************

  NA   - Mulliken gross atomic population
  ZA   - Total nuclear charge
  QA   - Mulliken gross atomic charge
  VA   - Mayer's total valence
  BVA  - Mayer's bonded valence
  FA   - Mayer's free valence

  ATOM       NA         ZA         QA         VA         BVA        FA
  0 H      0.8335     1.0000     0.1665     0.9620     0.9620    -0.0000
  1 C      6.1595     6.0000    -0.1595     3.9177     3.9177    -0.0000
  2 C      6.2151     6.0000    -0.2151     3.9119     3.9119     0.0000
  3 H      0.8399     1.0000     0.1601     0.9630     0.9630     0.0000
  4 C      6.1960     6.0000    -0.1960     3.8460     3.8460     0.0000
  5 H      0.8069     1.0000     0.1931     0.9526     0.9526     0.0000
  6 C      5.8454     6.0000     0.1546     3.9487     3.9487     0.0000
  7 O      8.3940     8.0000    -0.3940     1.8649     1.8649    -0.0000
  8 C      5.6689     6.0000     0.3311     3.7882     3.7882    -0.0000
  9 C      6.2930     6.0000    -0.2930     3.9122     3.9122    -0.0000
 10 H      0.8225     1.0000     0.1775     0.9645     0.9645     0.0000
 11 O      8.3814     8.0000    -0.3814     1.8756     1.8756    -0.0000
 12 C      6.1769     6.0000    -0.1769     3.8309     3.8309    -0.0000
 13 H      0.8731     1.0000     0.1269     0.9638     0.9638    -0.0000
 14 H      0.8466     1.0000     0.1534     0.9615     0.9615     0.0000
 15 H      0.8736     1.0000     0.1264     0.9610     0.9610    -0.0000
 16 C      6.1827     6.0000    -0.1827     3.8283     3.8283    -0.0000
 17 H      0.8617     1.0000     0.1383     0.9640     0.9640     0.0000
 18 H      0.8608     1.0000     0.1392     0.9582     0.9582    -0.0000
 19 H      0.8685     1.0000     0.1315     0.9636     0.9636    -0.0000

  Mayer bond orders larger than 0.100000
B(  0-H ,  1-C ) :   0.9787 B(  1-C ,  2-C ) :   1.5692 B(  1-C ,  9-C ) :   1.3206 
B(  2-C ,  3-H ) :   0.9827 B(  2-C ,  4-C ) :   1.2704 B(  4-C ,  5-H ) :   0.9574 
B(  4-C ,  6-C ) :   1.5696 B(  6-C ,  7-O ) :   1.0326 B(  6-C ,  8-C ) :   1.2570 
B(  7-O , 12-C ) :   0.8792 B(  8-C ,  9-C ) :   1.5096 B(  8-C , 11-O ) :   1.0468 
B(  9-C , 10-H ) :   0.9738 B( 11-O , 16-C ) :   0.8809 B( 12-C , 13-H ) :   0.9867 
B( 12-C , 14-H ) :   0.9722 B( 12-C , 15-H ) :   0.9818 B( 16-C , 17-H ) :   0.9835 
B( 16-C , 18-H ) :   0.9731 B( 16-C , 19-H ) :   0.9823 

-------
TIMINGS
-------

Total SCF time: 0 days 0 hours 0 min 23 sec 

Total time                  ....      23.540 sec
Sum of individual times     ....      23.253 sec  ( 98.8%)

Fock matrix formation       ....      21.853 sec  ( 92.8%)
Diagonalization             ....       0.438 sec  (  1.9%)
Density matrix formation    ....       0.023 sec  (  0.1%)
Population analysis         ....       0.038 sec  (  0.2%)
Initial guess               ....       0.210 sec  (  0.9%)
Orbital Transformation      ....       0.000 sec  (  0.0%)
Orbital Orthonormalization  ....       0.000 sec  (  0.0%)
DIIS solution               ....       0.177 sec  (  0.8%)
SOSCF solution              ....       0.390 sec  (  1.7%)


           ************************************************************
           *        Program running with 8 parallel MPI-processes     *
           *              working on a common directory               *
           ************************************************************


------------------------------------------------------------------------------- 
                              ORCA-MATRIX DRIVEN CI                            
------------------------------------------------------------------------------- 


Wavefunction type
-----------------
Correlation treatment                      ...      CCSD     
Single excitations                         ... ON
Orbital optimization                       ... OFF
Calculation of Z vector                    ... OFF
Calculation of Brueckner orbitals          ... OFF
Perturbative triple excitations            ... OFF
Calculation of F12 correction              ... OFF
Frozen core treatment                      ... chemical core (20 el)
Reference Wavefunction                     ... RHF
  Internal Orbitals:    10 ...   36 ( 27 MO's/ 54 electrons)
  Virtual  Orbitals:    37 ...  369 (333 MO's              )
Number of AO's                             ...    370
Number of electrons                        ...     74
Number of correlated electrons             ...     54

Algorithmic settings
--------------------
Integral transformation                    ... All integrals via the RI transformation
K(C) Formation                             ... RI-DLPNO
   PNO-Integral Storage                    ... ON DISK
   PNO occupation number cut-off           ... 3.330e-07
   Singles PNO occupation number cut-off   ... 9.990e-09
   PNO Mulliken prescreening cut-off       ... 1.000e-03
   Domain cut-off (Mulliken population)    ... 1.000e-03
   PNO Normalization                       ...    1
Maximum number of iterations               ...       100
Convergence tolerance (max. residuum)      ... 1.000e-06
Level shift for amplitude update           ... 2.000e-01
Maximum number of DIIS vectors             ...         7
DIIS turned on at iteration                ...         0
Damping before turning on DIIS             ...     0.500
Damping after turning on DIIS              ...     0.000
Pair specific amplitude update             ... OFF
Natural orbital iterations                 ... OFF
Perturbative natural orbital generation    ... OFF
Printlevel                                 ... 2

Singles Fock matrix elements calculated using PNOs.

Memory handling:
----------------
Maximum memory for working arrays          ...   1500 MB
Data storage in matrix containers          ... UNCOMPRESSED
Data type for integral storage             ... DOUBLE
In-Core Storage of quantities:
   Amplitudes+Sigma Vector      ... NO
   J+K operators                ... NO
   DIIS vectors                 ... NO
   3-external integrals         ... NO
   4-external integrals         ... NO

Localization treatment:
-----------------------
Localization option                        ...    6
Localization threshhold                    ... -1.0e+00
Using relative localization threshhold     ... 1.0e-08
Neglect threshold for strong pairs         ... 1.000e-04 Eh
Prescreening threshold for very weak pairs ... 1.000e-06 Eh

Initializing the integral package          ... done
Localizing the valence orbitals
------------------------------------------------------------------------------
                           ORCA ORBITAL LOCALIZATION
------------------------------------------------------------------------------

Input orbitals are from                  ... 1,2-dimethoxybenzene.gbw
Output orbitals are to                   ... 1,2-dimethoxybenzene.loc
Max. number of iterations                ... 128
Localizations seeded randomly            ... off
Convergence tolerance                    ... 2.000e-07
Using relative localization threshhold   ... 1.000e-08
Treshold for strong local MOs            ... 9.500e-01
Treshold for bond MOs                    ... 8.500e-01
Operator                                 ... 0
Orbital range for localization           ... 10 to 36
Localization criterion                   ... FOSTER-BOYS (AUGMENTED HESSIAN)
Doing the dipole integrals     ... o.k.
Initial value of the localization sum : 13512.371641
ITERATION   0 : L=13547.3061773187 DL=  3.49e+01 (AVERGE_DL)=    0.3154815276 
ITERATION   1 : L=13552.0667492829 DL=  4.76e+00 (AVERGE_DL)=    0.1164597917 
ITERATION   2 : L=13552.8362004309 DL=  7.69e-01 (AVERGE_DL)=    0.0468205992 
ITERATION   3 : L=13552.9290607308 DL=  9.29e-02 (AVERGE_DL)=    0.0162652777 
ITERATION   4 : L=13552.9394486546 DL=  1.04e-02 (AVERGE_DL)=    0.0054401493 
ITERATION   5 : L=13552.9406978217 DL=  1.25e-03 (AVERGE_DL)=    0.0018864996 
ITERATION   6 : L=13552.9408873610 DL=  1.90e-04 (AVERGE_DL)=    0.0007348456 
ITERATION   7 : L=13552.9409248662 DL=  3.75e-05 (AVERGE_DL)=    0.0003268830 
ITERATION   8 : L=13552.9409336542 DL=  8.79e-06 (AVERGE_DL)=    0.0001582313 
ITERATION   9 : L=13552.9409358827 DL=  2.23e-06 (AVERGE_DL)=    0.0000796791 
ITERATION  10 : L=13552.9409364668 DL=  5.84e-07 (AVERGE_DL)=    0.0000407963 
LOCALIZATION SUM CONVERGED

------------------------------------------------------
AUGMENTED HESSIAN OPTIMIZATION OF FOSTER-BOYS ORBITALS
------------------------------------------------------

Spin operator:           0
Orbital window:          10 to 36
Number of iterations:    128
Gradient tolerance:      2.000e-07
Number of pairs:         351
Davidson threshold:      2000
Diagonalization method:  LAPACK
Iter:    0   L: 13552.9409364669   Grad. norm: 2.827558e-03
   *** Likely close to a maximum now. ***
       Augmented Hessian eigenvalues:  4.56e-07 -6.75e-01 -9.10e-01 -3.12e+00 ... 
Iter:    1   L: 13552.9409366948   Grad. norm: 5.416780e-07
Iter:    2   L: 13552.9409366948   Grad. norm: 3.795760e-13
LOCALIZATION HAS CONVERGED.

Eigenvalues of the Hessian:
  0 -6.745e-01
  1 -9.101e-01
  2 -3.116e+00
  3 -3.395e+00
  4 -3.481e+00
  5 -3.911e+00
  6 -4.103e+00
  7 -4.909e+00
  8 -5.015e+00
  9 -5.187e+00
    ...


------------------------------------------------------------------------------- 
                    LOCALIZED MOLECULAR ORBITAL COMPOSITIONS                   
------------------------------------------------------------------------------- 

The Mulliken populations for each LMO on each atom are computed
The LMO`s will be ordered according to atom index and type
  (A) Strongly localized MO`s have populations of >=0.950 on one atom
  (B) Two center bond orbitals have populations of >=0.850 on two atoms
  (C) Other MO`s are considered to be `delocalized`

FOUND  -   4 strongly local MO`s
       -  23 two center bond MO`s
       -   0 significantly delocalized MO`s

Rather strongly localized orbitals:
MO  13:  11O  -   0.970348
MO  12:  11O  -   0.976226
MO  11:   7O  -   0.974582
MO  10:   7O  -   0.979003
Bond-like localized orbitals:
MO  36:  19H  -   0.451334  and  16C  -   0.583646
MO  35:  18H  -   0.448430  and  16C  -   0.585310
MO  34:  17H  -   0.447161  and  16C  -   0.579973
MO  33:  16C  -   0.335722  and  11O  -   0.668759
MO  32:  15H  -   0.454932  and  12C  -   0.581470
MO  31:  14H  -   0.437620  and  12C  -   0.583793
MO  30:  13H  -   0.455241  and  12C  -   0.583502
MO  29:  12C  -   0.330088  and   7O  -   0.674339
MO  28:  11O  -   0.660312  and   8C  -   0.367388
MO  27:  10H  -   0.418250  and   9C  -   0.610524
MO  26:   9C  -   0.500279  and   8C  -   0.451607
MO  25:   9C  -   0.513070  and   8C  -   0.448853
MO  24:   9C  -   0.516073  and   1C  -   0.504300
MO  23:   8C  -   0.513032  and   6C  -   0.522346
MO  22:   7O  -   0.648699  and   6C  -   0.378625
MO  21:   6C  -   0.488268  and   4C  -   0.479852
MO  20:   6C  -   0.472163  and   4C  -   0.486792
MO  19:   5H  -   0.411735  and   4C  -   0.612325
MO  18:   4C  -   0.507874  and   2C  -   0.505906
MO  17:   3H  -   0.429938  and   2C  -   0.601786
MO  16:   2C  -   0.554763  and   1C  -   0.403740
MO  15:   2C  -   0.432398  and   1C  -   0.533272
MO  14:   1C  -   0.603528  and   0H  -   0.426723
Localized MO's were stored in: 1,2-dimethoxybenzene.loc

Localizing the core orbitals
------------------------------------------------------------------------------
                           ORCA ORBITAL LOCALIZATION
------------------------------------------------------------------------------

Input orbitals are from                  ... 1,2-dimethoxybenzene.loc
Output orbitals are to                   ... 1,2-dimethoxybenzene.loc
Max. number of iterations                ... 128
Localizations seeded randomly            ... off
Convergence tolerance                    ... 2.000e-07
Using relative localization threshhold   ... 1.000e-08
Treshold for strong local MOs            ... 9.500e-01
Treshold for bond MOs                    ... 8.500e-01
Operator                                 ... 0
Orbital range for localization           ... 0 to 9
Localization criterion                   ... FOSTER-BOYS (AUGMENTED HESSIAN)
Doing the dipole integrals     ... o.k.
Initial value of the localization sum :  5028.590727
ITERATION   0 : L= 5028.5907316215 DL=  4.77e-06 (AVERGE_DL)=    0.0003257265 
ITERATION   1 : L= 5028.5907316215 DL=  0.00e+00 (AVERGE_DL)=    0.0000000000 
LOCALIZATION SUM CONVERGED

------------------------------------------------------
AUGMENTED HESSIAN OPTIMIZATION OF FOSTER-BOYS ORBITALS
------------------------------------------------------

Spin operator:           0
Orbital window:          0 to 9
Number of iterations:    128
Gradient tolerance:      2.000e-07
Number of pairs:         45
Davidson threshold:      2000
Diagonalization method:  LAPACK
Iter:    0   L: 5028.5907316215   Grad. norm: 1.660026e-04
   *** Likely close to a maximum now. ***
       Augmented Hessian eigenvalues:  2.74e-10 -2.62e+01 -2.67e+01 -2.74e+01 ... 
Iter:    1   L: 5028.5907316217   Grad. norm: 1.169318e-15
LOCALIZATION HAS CONVERGED.

Eigenvalues of the Hessian:
  0 -2.622e+01
  1 -2.670e+01
  2 -2.740e+01
  3 -2.769e+01
  4 -2.842e+01
  5 -2.843e+01
  6 -2.852e+01
  7 -2.869e+01
  8 -2.906e+01
  9 -3.082e+01
    ...


------------------------------------------------------------------------------- 
                    LOCALIZED MOLECULAR ORBITAL COMPOSITIONS                   
------------------------------------------------------------------------------- 

The Mulliken populations for each LMO on each atom are computed
The LMO`s will be ordered according to atom index and type
  (A) Strongly localized MO`s have populations of >=0.950 on one atom
  (B) Two center bond orbitals have populations of >=0.850 on two atoms
  (C) Other MO`s are considered to be `delocalized`

FOUND  -  10 strongly local MO`s
       -   0 two center bond MO`s
       -   0 significantly delocalized MO`s

Rather strongly localized orbitals:
MO   9:  16C  -   1.000065
MO   8:  12C  -   1.000089
MO   7:  11O  -   0.999200
MO   6:   9C  -   1.001661
MO   5:   8C  -   1.001105
MO   4:   7O  -   0.999282
MO   3:   6C  -   1.001721
MO   2:   4C  -   1.001531
MO   1:   2C  -   1.001447
MO   0:   1C  -   1.001619
Localized MO's were stored in: 1,2-dimethoxybenzene.loc

Warning: reference  - re-canonicalizations have been set to INT 1 VIRT 1
Warning: internal orbitals are localized - no re-canonicalization of internal orbitals
Warning: UsePNO is turned on - no re-canonicalization of internal and virtual orbitals

--------------------------
CLOSED-SHELL FOCK OPERATOR
--------------------------

MDCI_FockCPCM: ediel   =  -0.015648283000
MDCI_FockCPCM: <VCPCM> =  -0.434408590254
RI-JK section for the Fock operator:
  RHF full Fock operator         ... done
  RHF frozen core Fock operator  ... done
Time needed for Fock operator              ...            1.693 sec
Reference energy                           ...   -458.611161628

--------------
DLPNO SETTINGS (2015 fully linear scaling implementation)
--------------

TCutMKN:           1.000e-03
TCutPAO:           1.000e-03
TCutPNO:           3.330e-07
TCutPNOSingles:    9.990e-09
TCutEN:            9.700e-01
TCutPAOExt:        1.000e-01
TCutPairs:         1.000e-04
TCutPre:           1.000e-06
TCutOSV:           1.000e-06
TCutDOij:          1.000e-05
TCutDO:            1.000e-02
TCutC:             1.000e-04
TCutCPAO:          1.000e-03
TCutCMO:           1.000e-03
TScaleDOMP2PreScr: 2.000e+00
TScaleMKNMP2PreScr:1.000e+01
TScalePNOMP2PreScr:1.000e+00
PAO overlap thresh 1.000e-08
Using PNOs for Singles Fock computation
Use new domains
Use fully linear algorithm

--------------------------
Calculating differential overlap integrals ... ok
--------------------------
ELECTRON PAIR PRESCREENING
--------------------------

Dipole-based pair screening          .... used

   TCutDOij = 1.000000e-05
   TCutPre  = 1.000000e-06
   .... Finished loop over pairs
Total time spent in the prescreening                  ...     0.000 sec
sum of pair energies estimated for screened out pairs ...       0.000000000000 Eh
Thresholds for map construction and integral transformation for crude MP2:
   TCutMKN                    ...     1.0e-02
   TCutDO                     ...     2.0e-02
   TCutPairs                  ...     1.0e-04
   TCutPNO_CrudeMP2           ...     3.3e-07
   TCutPNOSingles_CrudeMP2    ...     1.0e-08
--------------------------------
LOCAL RI TRANSFORMATION (IAVPAO)
--------------------------------

Orbital window:      10 to 36
Number of PAOs:     370
Basis functions:    370 (150 shells)
Aux. functions:     910 (290 shells)

Processing maps (0.0 sec)
Average map sizes:
   Aux shells -> MOs              27.0
   Aux shells -> PAOs            370.0
   MOs        -> AO shells       141.7
   PAOs       -> AO shells       149.5

Calculating integrals (0.5 sec, 69.368 MB)
Sorting integrals (0.1 sec, 69.358 MB)
Total time for the integral transformation: 0.5 sec
--------------------------------
INITIAL GUESS AND PNO GENERATION
--------------------------------

PNO truncation parameters                   .... 
    PAOOverlapThresh   =        1.000e-08

    TCutPairs          =        1.000e-04
    TCutPNO            =        3.330e-07
[...]

      *** CONVERGENCE OF RESIDUAL NORM REACHED ***
       --- The STEOM iterations have converged ---
Solving Root No  10 
FollowCIS is 1
Iter    Delta-E          Residual              Time
---------------------------------------------------
  0   0.315429218434   0.006872605814         0.053
  1   0.002572347525   0.000891379716         0.052
  2   0.005168076009   0.001120579769         0.052
  3   0.010937079972   0.003004743093         0.052
  4   0.010512058658   0.001815476042         0.052
  5   0.013305838139   0.004090716845         0.052
  6   0.010654244172   0.002555527285         0.052
  7   0.011919423508   0.005342408735         0.052
  8   0.008762715613   0.000855384027         0.052
  9   0.008937045295   0.004065308674         0.052
 10   0.011042007363   0.000506735907         0.052
 11   0.001691667639   0.000512888191         0.052
 12   0.004623960382   0.004672920829         0.052
 13   0.003432456745   0.000287564040         0.052
 14   0.000581727651   0.000333321690         0.052
 15   0.001915574900   0.001114470842         0.052
 16   0.004925747131   0.001203323409         0.052
 17   0.002795363097   0.000829218505         0.052
 18   0.002177582848   0.000467558252         0.052
 19   0.004747872887   0.001901544320         0.052
 20   0.003762994524   0.000415943404         0.052
 21   0.001165735962   0.000579361230         0.052
 22   0.003989132683   0.000794763432         0.052
 23   0.001012309912   0.000242134969         0.052
  --- complex eigenvalues and eigenvectors
 23   0.001012309912   0.000242134969         0.052
 23   0.001012309912   0.000242134969         0.052
 24   0.000213496275   0.000208176426         0.053
 25   0.000068377388   0.000437730089         0.052
 26   0.000051112515   0.001696800215         0.052
 27   0.000083567093   0.000198166271         0.053
 28   0.000188646588   0.000066539451         0.053
  --- complex eigenvalues and eigenvectors
 28   0.000188646588   0.000066539451         0.053
 28   0.000188646588   0.000066539451         0.053
 29   0.000251047973   0.000120541325         0.053
 30   0.000078439796   0.000226630387         0.053
  --- complex eigenvalues and eigenvectors
 30   0.000078439796   0.000226630387         0.053
 30   0.000078439796   0.000226630387         0.053
 30   0.000078439796   0.000226630387         0.053
 30   0.000078439796   0.000226630387         0.053
 31   0.000439603925   0.000661697727         0.053
  --- complex eigenvalues and eigenvectors
 31   0.000439603925   0.000661697727         0.053
 31   0.000439603925   0.000661697727         0.053
 32   0.027291526261   0.000041983243         0.053
  --- complex eigenvalues and eigenvectors
 32   0.027291526261   0.000041983243         0.053
 32   0.027291526261   0.000041983243         0.053
 32   0.027291526261   0.000041983243         0.053
 32   0.027291526261   0.000041983243         0.053
 33   0.000248358182   0.000033751618         0.053
  --- complex eigenvalues and eigenvectors
 33   0.000248358182   0.000033751618         0.053
 33   0.000248358182   0.000033751618         0.053
 33   0.000248358182   0.000033751618         0.053
 33   0.000248358182   0.000033751618         0.053
 34   0.000124641382   0.000007490326         0.053

      *** CONVERGENCE OF RESIDUAL NORM REACHED ***
       --- The STEOM iterations have converged ---

------------------
STEOM-CCSD RESULTS
------------------

IROOT=  1:  0.168931 au     4.597 eV   37076.0 cm**-1
  Amplitude    Excitation
  -0.176892    35 ->  37
   0.527338    35 ->  38
   0.779444    36 ->  37
   0.235027    36 ->  38

Percentage Active Character     97.54

Warning:: the state may have not converged with respect to active space 
-------------------- Handle with Care -------------------- 

  Amplitude    Excitation in Canonical Basis
   0.179777    35 ->  37
   0.518232    35 ->  38
   0.772177    36 ->  37
  -0.239589    36 ->  38

IROOT=  2:  0.212856 au     5.792 eV   46716.5 cm**-1
  Amplitude    Excitation
  -0.149603    34 ->  38
  -0.377474    35 ->  37
  -0.152180    35 ->  38
  -0.291623    36 ->  37
   0.832804    36 ->  38

Percentage Active Character     96.94

Warning:: the state may have not converged with respect to active space 
-------------------- Handle with Care -------------------- 

  Amplitude    Excitation in Canonical Basis
  -0.156058    34 ->  38
   0.373623    35 ->  37
  -0.154285    35 ->  38
  -0.299054    36 ->  37
  -0.824722    36 ->  38

IROOT=  3:  0.242748 au     6.606 eV   53277.0 cm**-1
  Amplitude    Excitation
   0.151705    33 ->  37
   0.205815    34 ->  37
   0.111431    35 ->  37
   0.706399    35 ->  38
  -0.462549    36 ->  37
   0.270950    36 ->  41
   0.158514    36 ->  42

Percentage Active Character     90.39

Warning:: the state may have not converged with respect to active space 
-------------------- Handle with Care -------------------- 

  Amplitude    Excitation in Canonical Basis
  -0.104336    33 ->  37
  -0.243704    34 ->  37
  -0.104962    35 ->  37
   0.702701    35 ->  38
  -0.466423    36 ->  37
  -0.268389    36 ->  41
  -0.122236    36 ->  43

IROOT=  4:  0.249041 au     6.777 eV   54658.3 cm**-1
  Amplitude    Excitation
   0.134764    33 ->  37
   0.118745    34 ->  37
  -0.105437    34 ->  38
   0.817258    35 ->  37
   0.224265    35 ->  38
   0.399898    36 ->  38

Percentage Active Character     92.67

Warning:: the state may have not converged with respect to active space 
-------------------- Handle with Care -------------------- 

  Amplitude    Excitation in Canonical Basis
  -0.105608    33 ->  37
  -0.149819    34 ->  37
  -0.113213    34 ->  38
  -0.813641    35 ->  37
   0.230055    35 ->  38
  -0.397929    36 ->  38

IROOT=  5:  0.254746 au     6.932 eV   55910.4 cm**-1
  Amplitude    Excitation
  -0.146200    34 ->  41
  -0.134661    34 ->  42
  -0.294685    35 ->  38
  -0.164591    35 ->  41
   0.120612    35 ->  43
   0.192785    36 ->  37
   0.108670    36 ->  39
   0.715840    36 ->  41
   0.391590    36 ->  42
  -0.122985    36 ->  43

Percentage Active Character     92.68

Warning:: the state may have not converged with respect to active space 
-------------------- Handle with Care -------------------- 

  Amplitude    Excitation in Canonical Basis
  -0.180241    34 ->  41
  -0.138818    34 ->  43
  -0.290068    35 ->  38
  -0.170644    35 ->  41
   0.177178    36 ->  37
  -0.736428    36 ->  41
   0.123481    36 ->  42
  -0.311170    36 ->  43
   0.156178    36 ->  60

IROOT=  6:  0.274883 au     7.480 eV   60329.8 cm**-1
  Amplitude    Excitation
  -0.127650    34 ->  39
   0.152108    35 ->  40
  -0.186577    35 ->  41
   0.806887    36 ->  39
   0.242203    36 ->  40
  -0.357692    36 ->  41

Percentage Active Character     94.54

Warning:: the state may have not converged with respect to active space 
-------------------- Handle with Care -------------------- 

  Amplitude    Excitation in Canonical Basis
   0.145448    34 ->  39
   0.154019    35 ->  40
  -0.207197    35 ->  41
   0.832813    36 ->  39
   0.278312    36 ->  41
  -0.162220    36 ->  43
  -0.116923    36 ->  51

IROOT=  7:  0.282419 au     7.685 eV   61983.9 cm**-1
  Amplitude    Excitation
   0.106975    33 ->  43
   0.161300    34 ->  43
  -0.716385    35 ->  41
  -0.354848    35 ->  42
   0.226019    35 ->  43
  -0.174069    36 ->  39
  -0.185098    36 ->  40
  -0.193493    36 ->  41
  -0.126012    36 ->  42
  -0.237678    36 ->  43

Percentage Active Character     91.30

Warning:: the state may have not converged with respect to active space 
-------------------- Handle with Care -------------------- 

  Amplitude    Excitation in Canonical Basis
   0.132738    34 ->  42
  -0.724448    35 ->  41
   0.198762    35 ->  42
  -0.259524    35 ->  43
   0.172027    35 ->  60
  -0.208851    36 ->  39
   0.190804    36 ->  40
   0.199752    36 ->  41
   0.152117    36 ->  42
   0.124988    36 ->  43
   0.110796    36 ->  46

IROOT=  8:  0.287822 au     7.832 eV   63169.7 cm**-1
  Amplitude    Excitation
   0.120165    33 ->  39
  -0.103481    33 ->  40
  -0.215782    34 ->  40
   0.560828    35 ->  39
  -0.128170    35 ->  40
  -0.183693    35 ->  41
   0.673441    36 ->  40
  -0.159583    36 ->  44

Percentage Active Character     89.56

Warning:: the state may have not converged with respect to active space 
-------------------- Handle with Care -------------------- 

  Amplitude    Excitation in Canonical Basis
  -0.276595    34 ->  40
  -0.509316    35 ->  39
  -0.283046    35 ->  40
  -0.117894    35 ->  41
   0.120877    36 ->  39
  -0.681518    36 ->  40

IROOT=  9:  0.287975 au     7.836 eV   63203.3 cm**-1
  Amplitude    Excitation
  -0.115435    33 ->  39
   0.103857    33 ->  40
   0.217759    34 ->  40
  -0.558413    35 ->  39
   0.112004    35 ->  40
   0.174052    35 ->  41
  -0.685373    36 ->  40
   0.152363    36 ->  44

Percentage Active Character     89.91

Warning:: the state may have not converged with respect to active space 
-------------------- Handle with Care -------------------- 

  Amplitude    Excitation in Canonical Basis
   0.276966    34 ->  40
   0.510593    35 ->  39
   0.265443    35 ->  40
   0.109967    35 ->  41
  -0.121964    36 ->  39
   0.688446    36 ->  40

IROOT= 10:  0.305738 au     8.320 eV   67101.8 cm**-1
  Amplitude    Excitation
   0.332228    33 ->  37
   0.201151    33 ->  38
  -0.119151    33 ->  39
   0.112597    33 ->  41
   0.190781    34 ->  37
   0.136394    34 ->  38
  -0.110878    34 ->  39
  -0.355910    35 ->  39
   0.200507    35 ->  40
  -0.119061    35 ->  42
  -0.174591    36 ->  39
   0.493399    36 ->  40
   0.255837    36 ->  41
  -0.376987    36 ->  42

Percentage Active Character     76.07

Warning:: the state may have not converged with respect to active space 
-------------------- Handle with Care -------------------- 

  Amplitude    Excitation in Canonical Basis
  -0.279951    33 ->  37
   0.175540    33 ->  38
  -0.249453    34 ->  37
   0.186998    34 ->  38
   0.147603    34 ->  39
   0.274222    35 ->  39
   0.261918    35 ->  40
  -0.158012    35 ->  43
  -0.504865    36 ->  40
  -0.167609    36 ->  41
   0.130922    36 ->  42
   0.422176    36 ->  43



-------------------
CPCM SOLVENT SHIFT
-------------------

Reading the CPCM data                  ... done
Making difference densities            ... done
Computing the potentials               ... done
Calculating charges                    ... done

---------------------------------
     CALCULATED SOLVENT SHIFTS   
            CPCM  MODEL          
---------------------------------

Contributions of the 'fast' term to the solvent shift

 State Shift(Eh) Shift(eV) Shift(cm**-1) Shift(nm) Esteom(eV)  Esteom+SHIFT(eV)
-------------------------------------------------------------------------------
   0: -0.0004150 -0.011      -91.1        0.7      4.597          4.586
   1: -0.0016631 -0.045     -365.0        1.7      5.792          5.747
   2: -0.0012036 -0.033     -264.2        0.9      6.606          6.573
   3: -0.0006703 -0.018     -147.1        0.5      6.777          6.759
   4: -0.0007258 -0.020     -159.3        0.5      6.932          6.912
   5: -0.0055158 -0.150    -1210.6        3.4      7.480          7.330
   6: -0.0023812 -0.065     -522.6        1.4      7.685          7.620
   7: -0.0075792 -0.206    -1663.4        4.3      7.832          7.626
   8: -0.0075629 -0.206    -1659.9        4.3      7.836          7.630
   9: -0.0042813 -0.117     -939.6        2.1      8.320          8.203

WARNING: fewer states than desired (NRoots)!
Calculating the Dipole integrals                  ... done
Transforming integrals                            ... done
-----------------------------------------------------------------------------
         ABSORPTION SPECTRUM VIA TRANSITION ELECTRIC DIPOLE MOMENTS
-----------------------------------------------------------------------------
State   Energy  Wavelength   fosc         T2         TX        TY        TZ  
        (cm-1)    (nm)                  (au**2)     (au)      (au)      (au) 
-----------------------------------------------------------------------------
   1   36984.9    270.4   0.024800432   0.22075   0.46202   0.08356   0.01075
   2   46351.5    215.7   0.128971057   0.91602   0.28693   0.35016   0.84321
   3   53012.9    188.6   0.814268103   5.05664   2.14938   0.45112   0.32953
   4   54511.2    183.4   0.750423397   4.53207   0.21230   0.91111   1.84424
   5   55751.1    179.4   0.220365917   1.30127   1.11297   0.04660   0.23837
   6   59119.3    169.1   0.015809238   0.08804   0.08970   0.22187   0.16966
   7   61461.2    162.7   0.019372793   0.10377   0.07600   0.07364   0.29922
   8   61506.3    162.6   0.005216496   0.02792   0.14669   0.02558   0.06100
   9   61543.4    162.5   0.004459530   0.02386   0.13551   0.01257   0.06230
  10   66162.2    151.1   0.078091928   0.38857   0.44580   0.41192   0.12760

 STEOM-CCSD done in (  113.6)


------------------------------------------------------------------------------- 
                                     TIMINGS                                   
------------------------------------------------------------------------------- 


Total execution time                   ...      679.927 sec

Localization of occupied MO's          ...        0.398 sec (  0.1%)
Fock Matrix Formation                  ...        1.693 sec (  0.2%)
Global overlap, Fock, MKN matrices     ...        0.114 sec (  0.0%)
Differential overlap integrals         ...        0.119 sec (  0.0%)
Organizing maps                        ...        0.014 sec (  0.0%)
RI 3-index integral generations        ...        4.227 sec (  0.6%)
RI-PNO integral transformation         ...      150.676 sec ( 22.2%)
Initial Guess                          ...       13.827 sec (  2.0%)
DIIS Solver                            ...        0.224 sec (  0.0%)
State Vector Update                    ...        0.014 sec (  0.0%)
Sigma-vector construction              ...      125.411 sec ( 18.4%)
  <D|H|D>(0-ext)                       ...        5.429 sec (  4.3% of sigma)
  <D|H|D>(2-ext Fock)                  ...        0.023 sec (  0.0% of sigma)
  <D|H|D>(2-ext)                       ...       31.768 sec ( 25.3% of sigma)
  <D|H|D>(4-ext)                       ...        6.695 sec (  5.3% of sigma)
  <D|H|D>(4-ext-corr)                  ...       44.439 sec ( 35.4% of sigma)
  CCSD doubles correction              ...        0.134 sec (  0.1% of sigma)
  <S|H|S>                              ...        0.516 sec (  0.4% of sigma)
  <S|H|D>(1-ext)                       ...        0.727 sec (  0.6% of sigma)
  <D|H|S>(1-ext)                       ...        0.009 sec (  0.0% of sigma)
  <S|H|D>(3-ext)                       ...        0.164 sec (  0.1% of sigma)
  Fock-dressing                        ...       14.000 sec ( 11.2% of sigma)
  Singles amplitudes                   ...        0.617 sec (  0.5% of sigma)
  (ik|jl)-dressing                     ...        4.820 sec (  3.8% of sigma)
  (ij|ab),(ia|jb)-dressing             ...        3.992 sec (  3.2% of sigma)
  Pair energies                        ...        0.006 sec (  0.0% of sigma)
Total Time for computing EOM-CCSD      ...      234.352 sec ( 34.5% of ALL)
  Dressing integrals                   ...        4.801 sec (  2.0% of (EOM))
  EOM Singles                          ...        2.279 sec (  1.0% of (EOM))
  EOM Doubles                          ...      213.705 sec ( 91.2% of (EOM))
  Build Hamiltonian                    ...        1.200 sec (  0.5% of (EOM))
  Diagonalize Hamiltonian              ...        0.098 sec (  0.0% of (EOM))
  Ritz vectors                         ...        2.782 sec (  1.2% of (EOM))
  Residual vectors                     ...        3.014 sec (  1.3% of (EOM))
One-particle density matrix            ...        0.317 sec (  0.0%)


-------------------------   --------------------
FINAL SINGLE POINT ENERGY      -460.224530850253
-------------------------   --------------------


                            ***************************************
                            *     ORCA property calculations      *
                            ***************************************

                                    ---------------------
                                    Active property flags
                                    ---------------------
   (+) Dipole Moment


------------------------------------------------------------------------------
                       ORCA ELECTRIC PROPERTIES CALCULATION
------------------------------------------------------------------------------

Dipole Moment Calculation                       ... on
Quadrupole Moment Calculation                   ... off
Polarizability Calculation                      ... off
GBWName                                         ... 1,2-dimethoxybenzene.gbw
Electron density file                           ... 1,2-dimethoxybenzene.scfp
The origin for moment calculation is the CENTER OF MASS  = ( 7.999915, 15.212311 13.706940)

-------------
DIPOLE MOMENT
-------------
                                X             Y             Z
Electronic contribution:      1.18413      -0.32334       0.02645
Nuclear contribution   :     -0.68332       0.41455      -0.01060
                        -----------------------------------------
Total Dipole Moment    :      0.50080       0.09121       0.01585
                        -----------------------------------------
Magnitude (a.u.)       :      0.50929
Magnitude (Debye)      :      1.29451



--------------------
Rotational spectrum 
--------------------
 
Rotational constants in cm-1:     0.053341     0.045036     0.024703 
Rotational constants in MHz :  1599.111366  1350.138576   740.564905 

 Dipole components along the rotational axes: 
x,y,z [a.u.] :     0.234222     0.448015     0.061635 
x,y,z [Debye]:     0.595344     1.138763     0.156663 

 

                           *** MDCI DENSITY ***

------------------------------------------------------------------------------
                       ORCA ELECTRIC PROPERTIES CALCULATION
------------------------------------------------------------------------------

Dipole Moment Calculation                       ... on
Quadrupole Moment Calculation                   ... off
Polarizability Calculation                      ... off
GBWName                                         ... 1,2-dimethoxybenzene.gbw
Electron density file                           ... 1,2-dimethoxybenzene.mdcip
The origin for moment calculation is the CENTER OF MASS  = ( 7.999915, 15.212311 13.706940)

-------------
DIPOLE MOMENT
-------------
                                X             Y             Z
Electronic contribution:      1.02987      -0.31783       0.00252
Nuclear contribution   :     -0.68332       0.41455      -0.01060
                        -----------------------------------------
Total Dipole Moment    :      0.34655       0.09672      -0.00808
                        -----------------------------------------
Magnitude (a.u.)       :      0.35989
Magnitude (Debye)      :      0.91476



--------------------
Rotational spectrum 
--------------------
 
Rotational constants in cm-1:     0.053341     0.045036     0.024703 
Rotational constants in MHz :  1599.111366  1350.138576   740.564905 

 Dipole components along the rotational axes: 
x,y,z [a.u.] :     0.191917     0.297673     0.063849 
x,y,z [Debye]:     0.487815     0.756624     0.162293 

 

Timings for individual modules:

Sum of individual times         ...      704.623 sec (=  11.744 min)
GTO integral calculation        ...        0.447 sec (=   0.007 min)   0.1 %
SCF iterations                  ...       23.692 sec (=   0.395 min)   3.4 %
MDCI module                     ...      680.483 sec (=  11.341 min)  96.6 %
                             ****ORCA TERMINATED NORMALLY****
TOTAL RUN TIME: 0 days 0 hours 11 minutes 44 seconds 933 msec
