
                                 *****************
                                 * O   R   C   A *
                                 *****************

           --- An Ab Initio, DFT and Semiempirical electronic structure package ---

                  #######################################################
                  #                        -***-                        #
                  #          Department of theory and spectroscopy      #
                  #               Directorship: Frank Neese             #
                  #        Max Planck Institute fuer Kohlenforschung    #
                  #                Kaiser Wilhelm Platz 1               #
                  #                 D-45470 Muelheim/Ruhr               #
                  #                      Germany                        #
                  #                                                     #
                  #                  All rights reserved                #
                  #                        -***-                        #
                  #######################################################


                         Program Version 4.2.1 -  RELEASE  -


 With contributions from (in alphabetic order):
   Daniel Aravena         : Magnetic Suceptibility
   Michael Atanasov       : Ab Initio Ligand Field Theory (pilot matlab implementation)
   Alexander A. Auer      : GIAO ZORA, VPT2
   Ute Becker             : Parallelization
   Giovanni Bistoni       : ED, misc. LED, open-shell LED, HFLD
   Martin Brehm           : Molecular dynamics
   Dmytro Bykov           : SCF Hessian
   Vijay G. Chilkuri      : MRCI spin determinant printing, contributions to CSF-ICE
   Dipayan Datta          : RHF DLPNO-CCSD density
   Achintya Kumar Dutta   : EOM-CC, STEOM-CC
   Dmitry Ganyushin       : Spin-Orbit,Spin-Spin,Magnetic field MRCI
   Miquel Garcia          : C-PCM Hessian, Gaussian charge scheme
   Yang Guo               : DLPNO-NEVPT2, CIM, IAO-localization
   Andreas Hansen         : Spin unrestricted coupled pair/coupled cluster methods
   Benjamin Helmich-Paris : CASSCF linear response (MC-RPA)
   Lee Huntington         : MR-EOM, pCC
   Robert Izsak           : Overlap fitted RIJCOSX, COSX-SCS-MP3, EOM
   Christian Kollmar      : KDIIS, OOCD, Brueckner-CCSD(T), CCSD density
   Simone Kossmann        : Meta GGA functionals, TD-DFT gradient, OOMP2, MP2 Hessian
   Martin Krupicka        : AUTO-CI
   Lucas Lang             : DCDCAS
   Dagmar Lenk            : GEPOL surface, SMD
   Dimitrios Liakos       : Extrapolation schemes; Compound Job, initial MDCI parallelization
   Dimitrios Manganas     : Further ROCIS development; embedding schemes
   Dimitrios Pantazis     : SARC Basis sets
   Taras Petrenko         : DFT Hessian,TD-DFT gradient, ASA, ECA, R-Raman, ABS, FL, XAS/XES, NRVS
   Peter Pinski           : DLPNO-MP2, DLPNO-MP2 Gradient
   Christoph Reimann      : Effective Core Potentials
   Marius Retegan         : Local ZFS, SOC
   Christoph Riplinger    : Optimizer, TS searches, QM/MM, DLPNO-CCSD(T), (RO)-DLPNO pert. Triples
   Tobias Risthaus        : Range-separated hybrids, TD-DFT gradient, RPA, STAB
   Michael Roemelt        : Original ROCIS implementation
   Masaaki Saitow         : Open-shell DLPNO-CCSD energy and density
   Barbara Sandhoefer     : DKH picture change effects
   Avijit Sen             : IP-ROCIS
   Kantharuban Sivalingam : CASSCF convergence, NEVPT2, FIC-MRCI
   Bernardo de Souza      : ESD, SOC TD-DFT
   Georgi Stoychev        : AutoAux, RI-MP2 NMR
   Willem Van den Heuvel  : Paramagnetic NMR
   Boris Wezisla          : Elementary symmetry handling
   Frank Wennmohs         : Technical directorship


 We gratefully acknowledge several colleagues who have allowed us to
 interface, adapt or use parts of their codes:
   Stefan Grimme, W. Hujo, H. Kruse,             : VdW corrections, initial TS optimization,
                  C. Bannwarth                     DFT functionals, gCP, sTDA/sTD-DF
   Ed Valeev, F. Pavosevic, A. Kumar             : LibInt (2-el integral package), F12 methods
   Garnet Chan, S. Sharma, J. Yang, R. Olivares  : DMRG
   Ulf Ekstrom                                   : XCFun DFT Library
   Mihaly Kallay                                 : mrcc  (arbitrary order and MRCC methods)
   Andreas Klamt, Michael Diedenhofen            : otool_cosmo (COSMO solvation model)
   Jiri Pittner, Ondrej Demel                    : Mk-CCSD
   Frank Weinhold                                : gennbo (NPA and NBO analysis)
   Christopher J. Cramer and Donald G. Truhlar   : smd solvation model
   Lars Goerigk                                  : TD-DFT with DH, B97 family of functionals
   V. Asgeirsson, H. Jonsson                     : NEB implementation
   FAccTs GmbH                                   : IRC, NEB, NEB-TS, Multilevel, MM, QM/MM, CI optimization
   S Lehtola, MJT Oliveira, MAL Marques          : LibXC Library


 Your calculation uses the libint2 library for the computation of 2-el integrals
 For citations please refer to: http://libint.valeyev.net

 Your ORCA version has been built with support for libXC version: 4.2.3
 For citations please refer to: https://tddft.org/programs/libxc/

 This ORCA versions uses:
   CBLAS   interface :  Fast vector & matrix operations
   LAPACKE interface :  Fast linear algebra routines
   SCALAPACK package :  Parallel linear algebra routines


----- Orbital basis set information -----
Your calculation utilizes the basis: def2-TZVP
   F. Weigend and R. Ahlrichs, Phys. Chem. Chem. Phys. 7, 3297 (2005).

----- AuxC basis set information -----
Your calculation utilizes the auxiliary basis: def2-TZVP/C
  H-La, Hf-Rn : A. Hellweg, C. Hattig, S. Hofener and W. Klopper, Theor. Chem. Acc. 117, 587 (2007).
        Ce-Lu : J. Chmela and M. E. Harding, Mol. Phys. (2018).

----- AuxJK basis set information -----
Your calculation utilizes the auxiliary basis: def2/JK
   H-Ba, Hf-Rn: F. Weigend, J. Comput. Chem. 29, 167 (2008).

================================================================================
                                        WARNINGS
                       Please study these warnings very carefully!
================================================================================


WARNING: MDCI localization with Augmented Hessian Foster-Boys
  ===> : Switching off randomization!

WARNING: Post HF methods need fully converged wavefunctions
  ===> : Setting SCFConvForced true
         You can overwrite this default with %scf ConvForced false 


INFO   : the flag for use of LIBINT has been found!

================================================================================
                                       INPUT FILE
================================================================================
NAME = 1,3-dimethoxybenzene.inp
|  1> ! STEOM-DLPNO-CCSD RIJK def2-TZVP def2/JK def2-TZVP/C verytightSCF CPCM(Water)
|  2> %maxcore 1500
|  3> %pal
|  4> nprocs 8
|  5> end
|  6> %mdci 
|  7> nroots 10
|  8> DoSOLV true
|  9> maxiter 100
| 10> end
| 11> * xyz 0 1
| 12> H  7.265000  5.258000  9.341000
| 13> C  7.035000  4.736000  8.415000
| 14> C  5.808000  4.785000  7.786000
| 15> H  4.887000  5.239000  8.214000
| 16> C  5.796000  4.355000  6.417000
| 17> O  4.562000  4.499000  5.796000
| 18> C  6.854000  3.742000  5.754000
| 19> H  6.935000  3.482000  4.658000
| 20> C  8.077000  3.727000  6.483000
| 21> C  8.191000  4.257000  7.838000
| 22> H  9.025000  4.446000  8.501000
| 23> O  9.262000  3.072000  5.975000
| 24> C  9.372000  3.038000  4.562000
| 25> H  9.073000  3.991000  4.076000
| 26> H  10.492000  2.852000  4.379000
| 27> H  8.866000  2.146000  4.096000
| 28> C  4.552000  4.276000  4.350000
| 29> H  4.901000  3.235000  4.207000
| 30> H  3.516000  4.337000  4.066000
| 31> H  5.239000  5.011000  3.934000
| 32> **                         ****END OF INPUT****
================================================================================

                       ****************************
                       * Single Point Calculation *
                       ****************************

---------------------------------
CARTESIAN COORDINATES (ANGSTROEM)
---------------------------------
  H      7.265000    5.258000    9.341000
  C      7.035000    4.736000    8.415000
  C      5.808000    4.785000    7.786000
  H      4.887000    5.239000    8.214000
  C      5.796000    4.355000    6.417000
  O      4.562000    4.499000    5.796000
  C      6.854000    3.742000    5.754000
  H      6.935000    3.482000    4.658000
  C      8.077000    3.727000    6.483000
  C      8.191000    4.257000    7.838000
  H      9.025000    4.446000    8.501000
  O      9.262000    3.072000    5.975000
  C      9.372000    3.038000    4.562000
  H      9.073000    3.991000    4.076000
  H     10.492000    2.852000    4.379000
  H      8.866000    2.146000    4.096000
  C      4.552000    4.276000    4.350000
  H      4.901000    3.235000    4.207000
  H      3.516000    4.337000    4.066000
  H      5.239000    5.011000    3.934000

----------------------------
CARTESIAN COORDINATES (A.U.)
----------------------------
  NO LB      ZA    FRAG     MASS         X           Y           Z
   0 H     1.0000    0     1.008   13.728860    9.936180   17.651932
   1 C     6.0000    0    12.011   13.294223    8.949743   15.902045
   2 C     6.0000    0    12.011   10.975529    9.042340   14.713408
   3 H     1.0000    0     1.008    9.235092    9.900275   15.522210
   4 C     6.0000    0    12.011   10.952853    8.229757   12.126373
   5 O     8.0000    0    15.999    8.620931    8.501878   10.952853
   6 C     6.0000    0    12.011   12.952183    7.071355   10.873484
   7 H     1.0000    0     1.008   13.105251    6.580026    8.802344
   8 C     6.0000    0    12.011   15.263318    7.043009   12.251095
   9 C     6.0000    0    12.011   15.478747    8.044564   14.811673
  10 H     1.0000    0     1.008   17.054778    8.401722   16.064562
  11 O     8.0000    0    15.999   17.502643    5.805239   11.291114
  12 C     6.0000    0    12.011   17.710513    5.740988    8.620931
  13 H     1.0000    0     1.008   17.145485    7.541897    7.702524
  14 H     1.0000    0     1.008   19.827007    5.389499    8.275111
  15 H     1.0000    0     1.008   16.754312    4.055352    7.740318
  16 C     6.0000    0    12.011    8.602033    8.080469    8.220309
  17 H     1.0000    0     1.008    9.261548    6.113264    7.950078
  18 H     1.0000    0     1.008    6.644277    8.195742    7.683626
  19 H     1.0000    0     1.008    9.900275    9.469418    7.434183

--------------------------------
INTERNAL COORDINATES (ANGSTROEM)
--------------------------------
 H      0   0   0     0.000000000000     0.00000000     0.00000000
 C      1   0   0     1.087593674127     0.00000000     0.00000000
 C      2   1   0     1.379699604987   123.99943146     0.00000000
 H      3   2   1     1.112448201041   125.12543856   351.20898254
 C      3   2   1     1.434993031342   115.57709044   163.34807008
 O      5   3   2     1.388932323765   113.76002754   183.84599666
 C      5   3   2     1.390935656312   125.48123649     9.03782709
 H      7   5   3     1.129325905131   128.21475799   186.88588369
 C      7   5   3     1.423866215626   114.45230214   351.29576802
 C      2   1   3     1.377935412129   110.24010874   168.04575392
 H     10   2   1     1.082056375611   109.22769587     5.07140287
 O      9   7   5     1.446137614475   121.92088679   176.83507373
 C     12   9   7     1.417682968791   115.12300398    29.64653921
 H     13  12   9     1.110768202642   113.24271661    41.50512230
 H     13  12   9     1.149993478242   103.77161783   159.96252150
 H     13  12   9     1.126435084681   113.35737396   272.23563842
 C      6   5   3     1.463128497433   115.60360126   170.67337469
 H     17   6   5     1.107217684107   105.59193712    59.87660870
 H     17   6   5     1.075952136482   104.99900169   174.81398275
 H     17   6   5     1.088691875601   105.68963572   300.19561073

---------------------------
INTERNAL COORDINATES (A.U.)
---------------------------
 H      0   0   0     0.000000000000     0.00000000     0.00000000
 C      1   0   0     2.055254189084     0.00000000     0.00000000
 C      2   1   0     2.607254400504   123.99943146     0.00000000
 H      3   2   1     2.102222438141   125.12543856   351.20898254
 C      3   2   1     2.711743833322   115.57709044   163.34807008
 O      5   3   2     2.624701710467   113.76002754   183.84599666
 C      5   3   2     2.628487460336   125.48123649     9.03782709
 H      7   5   3     2.134116676640   128.21475799   186.88588369
 C      7   5   3     2.690717198875   114.45230214   351.29576802
 C      2   1   3     2.603920559156   110.24010874   168.04575392
 H     10   2   1     2.044790211368   109.22769587     5.07140287
 O      9   7   5     2.732804043320   121.92088679   176.83507373
 C     12   9   7     2.679032555739   115.12300398    29.64653921
 H     13  12   9     2.099047701261   113.24271661    41.50512230
 H     13  12   9     2.173172729674   103.77161783   159.96252150
 H     13  12   9     2.128653817687   113.35737396   272.23563842
 C      6   5   3     2.764912158884   115.60360126   170.67337469
 H     17   6   5     2.092338193597   105.59193712    59.87660870
 H     17   6   5     2.033254871158   104.99900169   174.81398275
 H     17   6   5     2.057329489111   105.68963572   300.19561073

---------------------
BASIS SET INFORMATION
---------------------
There are 3 groups of distinct atoms

 Group   1 Type H   : 5s1p contracted to 3s1p pattern {311/1}
 Group   2 Type C   : 11s6p2d1f contracted to 5s3p2d1f pattern {62111/411/11/1}
 Group   3 Type O   : 11s6p2d1f contracted to 5s3p2d1f pattern {62111/411/11/1}

Atom   0H    basis set group =>   1
Atom   1C    basis set group =>   2
Atom   2C    basis set group =>   2
Atom   3H    basis set group =>   1
Atom   4C    basis set group =>   2
Atom   5O    basis set group =>   3
Atom   6C    basis set group =>   2
Atom   7H    basis set group =>   1
Atom   8C    basis set group =>   2
Atom   9C    basis set group =>   2
Atom  10H    basis set group =>   1
Atom  11O    basis set group =>   3
Atom  12C    basis set group =>   2
Atom  13H    basis set group =>   1
Atom  14H    basis set group =>   1
Atom  15H    basis set group =>   1
Atom  16C    basis set group =>   2
Atom  17H    basis set group =>   1
Atom  18H    basis set group =>   1
Atom  19H    basis set group =>   1
---------------------------------
AUXILIARY/C BASIS SET INFORMATION
---------------------------------
There are 3 groups of distinct atoms

 Group   1 Type H   : 4s3p2d contracted to 4s2p1d pattern {1111/21/2}
 Group   2 Type C   : 8s6p5d3f1g contracted to 8s6p4d3f1g pattern {11111111/111111/2111/111/1}
 Group   3 Type O   : 8s6p5d3f1g contracted to 8s6p4d3f1g pattern {11111111/111111/2111/111/1}

Atom   0H    basis set group =>   1
Atom   1C    basis set group =>   2
Atom   2C    basis set group =>   2
Atom   3H    basis set group =>   1
Atom   4C    basis set group =>   2
Atom   5O    basis set group =>   3
Atom   6C    basis set group =>   2
Atom   7H    basis set group =>   1
Atom   8C    basis set group =>   2
Atom   9C    basis set group =>   2
Atom  10H    basis set group =>   1
Atom  11O    basis set group =>   3
Atom  12C    basis set group =>   2
Atom  13H    basis set group =>   1
Atom  14H    basis set group =>   1
Atom  15H    basis set group =>   1
Atom  16C    basis set group =>   2
Atom  17H    basis set group =>   1
Atom  18H    basis set group =>   1
Atom  19H    basis set group =>   1
----------------------------------
AUXILIARY/JK BASIS SET INFORMATION
----------------------------------
There are 3 groups of distinct atoms

 Group   1 Type H   : 4s2p2d contracted to 2s2p2d pattern {31/11/11}
 Group   2 Type C   : 14s10p6d2f1g contracted to 10s8p5d1f1g pattern {5111111111/31111111/21111/2/1}
 Group   3 Type O   : 14s10p6d2f1g contracted to 10s8p4d2f1g pattern {5111111111/31111111/3111/11/1}

Atom   0H    basis set group =>   1
Atom   1C    basis set group =>   2
Atom   2C    basis set group =>   2
Atom   3H    basis set group =>   1
Atom   4C    basis set group =>   2
Atom   5O    basis set group =>   3
Atom   6C    basis set group =>   2
Atom   7H    basis set group =>   1
Atom   8C    basis set group =>   2
Atom   9C    basis set group =>   2
Atom  10H    basis set group =>   1
Atom  11O    basis set group =>   3
Atom  12C    basis set group =>   2
Atom  13H    basis set group =>   1
Atom  14H    basis set group =>   1
Atom  15H    basis set group =>   1
Atom  16C    basis set group =>   2
Atom  17H    basis set group =>   1
Atom  18H    basis set group =>   1
Atom  19H    basis set group =>   1


           ************************************************************
           *        Program running with 8 parallel MPI-processes     *
           *              working on a common directory               *
           ************************************************************
------------------------------------------------------------------------------
                           ORCA GTO INTEGRAL CALCULATION
                           -- RI-GTO INTEGRALS CHOSEN --
------------------------------------------------------------------------------

                         BASIS SET STATISTICS AND STARTUP INFO

Gaussian basis set:
 # of primitive gaussian shells          ...  260
 # of primitive gaussian functions       ...  540
 # of contracted shells                  ...  150
 # of contracted basis functions         ...  370
 Highest angular momentum                ...    3
 Maximum contraction depth               ...    6
Auxiliary gaussian basis set:
 # of primitive gaussian shells          ...  410
 # of primitive gaussian functions       ... 1170
 # of contracted shells                  ...  310
 # of contracted aux-basis functions     ...  934
 Highest angular momentum                ...    4
 Maximum contraction depth               ...    5
Ratio of auxiliary to basis functions    ...  2.52
Integral package used                  ... LIBINT
 One Electron integrals                  ... done
 Ordering auxiliary basis shells         ... done
 Integral threshhold             Thresh  ...  1.000e-12
 Primitive cut-off               TCut    ...  1.000e-14
 Pre-screening matrix                    ... done
 Shell pair data                         ... 
 Ordering of the shell pairs             ... done (   0.001 sec) 9892 of 11325 pairs
 Determination of significant pairs      ... done (   0.000 sec)
 Creation of shell pair data             ... done (   0.001 sec)
 Storage of shell pair data              ... done (   0.009 sec)
 Shell pair data done in (   0.011 sec)
 Computing two index integrals           ... done
 Cholesky decomposition of the V-matrix  ... done


Timings:
 Total evaluation time                   ...   0.248 sec (  0.004 min)
 One electron matrix time                ...   0.060 sec (  0.001 min) = 24.3%
 Schwartz matrix evaluation time         ...   0.113 sec (  0.002 min) = 45.8%
 Two index repulsion integral time       ...   0.011 sec (  0.000 min) =  4.3%
 Cholesky decomposition of V             ...   0.040 sec (  0.001 min) = 16.0%
 Three index repulsion integral time     ...   0.000 sec (  0.000 min) =  0.0%



           ************************************************************
           *        Program running with 8 parallel MPI-processes     *
           *              working on a common directory               *
           ************************************************************
-------------------------------------------------------------------------------
                                 ORCA SCF
-------------------------------------------------------------------------------

------------
SCF SETTINGS
------------
Hamiltonian:
 Ab initio Hamiltonian  Method          .... Hartree-Fock(GTOs)
 RI-approximation to the Coulomb term is turned on
   Number of auxiliary basis functions  .... 934
   RI-JK (J+K treated both via RI)      .... on


General Settings:
 Integral files         IntName         .... 1,3-dimethoxybenzene
 Hartree-Fock type      HFTyp           .... RHF
 Total Charge           Charge          ....    0
 Multiplicity           Mult            ....    1
 Number of Electrons    NEL             ....   74
 Basis Dimension        Dim             ....  370
 Nuclear Repulsion      ENuc            ....    508.7685346108 Eh

Convergence Acceleration:
 DIIS                   CNVDIIS         .... on
   Start iteration      DIISMaxIt       ....    12
   Startup error        DIISStart       ....  0.200000
   # of expansion vecs  DIISMaxEq       ....     5
   Bias factor          DIISBfac        ....   1.050
   Max. coefficient     DIISMaxC        ....  10.000
 Newton-Raphson         CNVNR           .... off
 SOSCF                  CNVSOSCF        .... on
   Start iteration      SOSCFMaxIt      ....   150
   Startup grad/error   SOSCFStart      ....  0.003300
 Level Shifting         CNVShift        .... on
   Level shift para.    LevelShift      ....    0.2500
   Turn off err/grad.   ShiftErr        ....    0.0010
 Zerner damping         CNVZerner       .... off
 Static damping         CNVDamp         .... on
   Fraction old density DampFac         ....    0.7000
   Max. Damping (<1)    DampMax         ....    0.9800
   Min. Damping (>=0)   DampMin         ....    0.0000
   Turn off err/grad.   DampErr         ....    0.1000
 Fernandez-Rico         CNVRico         .... off

SCF Procedure:
 Maximum # iterations   MaxIter         ....   125
 SCF integral mode      SCFMode         .... Direct
   Integral package                     .... LIBINT
 Reset frequency        DirectResetFreq ....    20
 Integral Threshold     Thresh          ....  1.000e-12 Eh
 Primitive CutOff       TCut            ....  1.000e-14 Eh

Convergence Tolerance:
 Convergence Check Mode ConvCheckMode   .... Total+1el-Energy
 Convergence forced     ConvForced      .... 1
 Energy Change          TolE            ....  1.000e-09 Eh
 1-El. energy change                    ....  1.000e-06 Eh
 Orbital Gradient       TolG            ....  2.000e-06
 Orbital Rotation angle TolX            ....  2.000e-06
 DIIS Error             TolErr          ....  1.000e-08


Diagonalization of the overlap matrix:
Smallest eigenvalue                        ... 1.929e-05
Time for diagonalization                   ...    0.028 sec
Threshold for overlap eigenvalues          ... 1.000e-08
Number of eigenvalues below threshold      ... 0
Time for construction of square roots      ...    0.034 sec
Total time needed                          ...    0.062 sec

-------------------
DFT GRID GENERATION
-------------------

General Integration Accuracy     IntAcc      ...  4.340
Radial Grid Type                 RadialGrid  ... Gauss-Chebyshev
Angular Grid (max. acc.)         AngularGrid ... Lebedev-110
Angular grid pruning method      GridPruning ... 3 (G Style)
Weight generation scheme         WeightScheme... Becke
Basis function cutoff            BFCut       ...    1.0000e-12
Integration weight cutoff        WCut        ...    1.0000e-14
Grids for H and He will be reduced by one unit

# of grid points (after initial pruning)     ...  24620 (   0.0 sec)
# of grid points (after weights+screening)   ...  22673 (   0.0 sec)
nearest neighbour list constructed           ...    0.0 sec
Grid point re-assignment to atoms done       ...    0.0 sec
Grid point division into batches done        ...    0.0 sec
Reduced shell lists constructed in    0.1 sec

Total number of grid points                  ...    22673
Total number of batches                      ...      365
Average number of points per batch           ...       62
Average number of grid points per atom       ...     1134
Average number of shells per batch           ...    90.38 (60.26%)
Average number of basis functions per batch  ...   227.45 (61.47%)
Average number of large shells per batch     ...    70.26 (77.73%)
Average number of large basis fcns per batch ...   177.49 (78.04%)
Average number of aux-shells per batch       ...    90.38 (29.16%)
Average number of aux functions per batch    ...   227.45 (24.35%)
Maximum spatial batch extension              ...  19.19, 18.08, 16.36 au
Average spatial batch extension              ...   0.47,  0.56,  0.46 au

Time for grid setup =    0.119 sec

------------------------------
INITIAL GUESS: MODEL POTENTIAL
------------------------------
Loading Hartree-Fock densities                     ... done
Calculating cut-offs                               ... done
Setting up the integral package                    ... done
Initializing the effective Hamiltonian             ... done
Starting the Coulomb interaction                   ... done (   0.0 sec)
Reading the grid                                   ... done
Mapping shells                                     ... done
Starting the XC term evaluation                    ... done (   0.0 sec)
Transforming the Hamiltonian                       ... done (   0.0 sec)
Diagonalizing the Hamiltonian                      ... done (   0.0 sec)
Back transforming the eigenvectors                 ... done (   0.0 sec)
Now organizing SCF variables                       ... done
                      ------------------
                      INITIAL GUESS DONE (   0.3 sec)
                      ------------------

--------------------
CPCM SOLVATION MODEL
--------------------
CPCM parameters:
  Epsilon                                         ...      80.4000
  Refrac                                          ...       1.3300
  Rsolv                                           ...       1.3000
  Surface type                                    ...    GEPOL SES
  Epsilon function type                           ...         CPCM
Radii:
 Radius for H  used is    2.4566 Bohr (=   1.3000 Ang.)
 Radius for C  used is    3.7795 Bohr (=   2.0000 Ang.)
 Radius for O  used is    3.2503 Bohr (=   1.7200 Ang.)
Calculating surface                               ...        done! (  0.0s)
GEPOL surface points                              ...          687
GEPOL Volume                                      ...    1181.6314
GEPOL Surface-area                                ...     658.0453
Calculating surface distance matrix               ...        done! (  0.0s)
Performing Cholesky decomposition & store         ...        done! (  0.0s)
Overall time for CPCM initialization              ...                 0.1s
--------------
SCF ITERATIONS
--------------
ITER       Energy         Delta-E        Max-DP      RMS-DP      [F,P]     Damp
  0   -458.2214629032   0.000000000000 0.02690860  0.00077779  0.3001647 0.7000
  1   -458.1282179190   0.093244984171 0.02663736  0.00081778  0.2488741 0.7000
                               ***Turning on DIIS***
  2   -458.1728347534  -0.044616834448 0.02261263  0.00063940  0.1794658 0.7000
  3   -459.2942248611  -1.121390107655 0.01760269  0.00041113  0.1247140 0.7000
  4   -458.6959566881   0.598268172994 0.04496638  0.00096507  0.0831762 0.0000
  5   -458.5558388664   0.140117821654 0.00814408  0.00016415  0.0167592 0.0000
  6   -458.5140193819   0.041819484561 0.00426746  0.00008365  0.0083531 0.0000
  7   -458.5357683345  -0.021748952666 0.00208395  0.00005002  0.0050938 0.0000
                      *** Initiating the SOSCF procedure ***
                           *** Shutting down DIIS ***
                      *** Re-Reading the Fockian *** 
                      *** Removing any level shift *** 
ITER      Energy       Delta-E        Grad      Rot      Max-DP    RMS-DP
  8   -458.54608203  -0.0103136992  0.001715  0.001715  0.001300  0.000038
  9   -458.59615586  -0.0500738240  0.000783  0.001855  0.000628  0.000016
 10   -458.59616826  -0.0000124058  0.000310  0.002508  0.001245  0.000026
 11   -458.59617720  -0.0000089402  0.000068  0.000246  0.000257  0.000006
 12   -458.59617776  -0.0000005581  0.000032  0.000110  0.000111  0.000003
 13   -458.59617786  -0.0000000969  0.000008  0.000018  0.000044  0.000001
 14   -458.59617786  -0.0000000052  0.000003  0.000006  0.000017  0.000000
 15   -458.59617786  -0.0000000006  0.000002  0.000005  0.000002  0.000000
                 **** Energy Check signals convergence ****
              ***Rediagonalizing the Fockian in SOSCF/NRSCF***

               *****************************************************
               *                     SUCCESS                       *
               *           SCF CONVERGED AFTER  16 CYCLES          *
               *****************************************************


----------------
TOTAL SCF ENERGY
----------------

Total Energy       :         -458.59617786 Eh          -12479.03642 eV

Components:
Nuclear Repulsion  :          508.76853461 Eh           13844.29566 eV
Electronic Energy  :         -967.36471248 Eh          -26323.33208 eV
One Electron Energy:        -1633.84714208 Eh          -44459.24100 eV
Two Electron Energy:          666.48242961 Eh           18135.90892 eV
CPCM Dielectric    :           -0.01684028 Eh              -0.45825 eV

Virial components:
Potential Energy   :         -915.96730119 Eh          -24924.73741 eV
Kinetic Energy     :          457.37112332 Eh           12445.70099 eV
Virial Ratio       :            2.00267847

CPCM Solvation Model Properties:
Surface-charge          :           -0.02830824
Charge-correction       :           -0.00013124 Eh              -0.00357 eV
Free-energy (cav+disp)  :            0.00409141 Eh               0.11133 eV
Corrected G(solv)       :         -458.59221770 Eh          -12478.92866 eV

---------------
SCF CONVERGENCE
---------------

  Last Energy change         ...   -7.3157e-11  Tolerance :   1.0000e-09
  Last MAX-Density change    ...    1.7591e-06  Tolerance :   1.0000e-08
  Last RMS-Density change    ...    3.3755e-08  Tolerance :   1.0000e-09
  Last Orbital Gradient      ...    2.6246e-07  Tolerance :   2.0000e-06
  Last Orbital Rotation      ...    7.4617e-07  Tolerance :   2.0000e-06

             **** THE GBW FILE WAS UPDATED (1,3-dimethoxybenzene.gbw) ****
             **** DENSITY FILE WAS UPDATED (1,3-dimethoxybenzene.scfp) ****
             **** ENERGY FILE WAS UPDATED (1,3-dimethoxybenzene.en.tmp) ****
             **** THE GBW FILE WAS UPDATED (1,3-dimethoxybenzene.gbw) ****
             **** DENSITY FILE WAS UPDATED (1,3-dimethoxybenzene.scfp) ****
----------------
ORBITAL ENERGIES
----------------

  NO   OCC          E(Eh)            E(eV) 
   0   2.0000     -20.589612      -560.2718 
   1   2.0000     -20.581312      -560.0460 
   2   2.0000     -11.329465      -308.2904 
   3   2.0000     -11.317882      -307.9752 
   4   2.0000     -11.283983      -307.0528 
   5   2.0000     -11.276673      -306.8539 
   6   2.0000     -11.245564      -306.0074 
   7   2.0000     -11.239699      -305.8478 
   8   2.0000     -11.233258      -305.6725 
   9   2.0000     -11.230391      -305.5945 
  10   2.0000      -1.392355       -37.8879 
  11   2.0000      -1.386836       -37.7377 
  12   2.0000      -1.143811       -31.1247 
  13   2.0000      -1.027352       -27.9557 
  14   2.0000      -1.010300       -27.4916 
  15   2.0000      -0.943407       -25.6714 
  16   2.0000      -0.913426       -24.8556 
  17   2.0000      -0.820218       -22.3193 
  18   2.0000      -0.802944       -21.8492 
  19   2.0000      -0.716939       -19.5089 
  20   2.0000      -0.680874       -18.5275 
  21   2.0000      -0.655674       -17.8418 
  22   2.0000      -0.651111       -17.7176 
  23   2.0000      -0.642436       -17.4816 
  24   2.0000      -0.633750       -17.2452 
  25   2.0000      -0.614403       -16.7187 
  26   2.0000      -0.596191       -16.2232 
  27   2.0000      -0.563470       -15.3328 
  28   2.0000      -0.537484       -14.6257 
  29   2.0000      -0.533234       -14.5100 
  30   2.0000      -0.516018       -14.0416 
  31   2.0000      -0.499161       -13.5829 
  32   2.0000      -0.487086       -13.2543 
  33   2.0000      -0.477583       -12.9957 
  34   2.0000      -0.449283       -12.2256 
  35   2.0000      -0.349356        -9.5065 
  36   2.0000      -0.307777        -8.3750 
  37   0.0000       0.114494         3.1155 
  38   0.0000       0.128772         3.5041 
  39   0.0000       0.146820         3.9952 
  40   0.0000       0.170909         4.6507 
  41   0.0000       0.180267         4.9053 
  42   0.0000       0.191361         5.2072 
  43   0.0000       0.200430         5.4540 
  44   0.0000       0.211435         5.7534 
  45   0.0000       0.216374         5.8878 
  46   0.0000       0.220645         6.0041 
  47   0.0000       0.230982         6.2854 
  48   0.0000       0.233310         6.3487 
  49   0.0000       0.260739         7.0951 
  50   0.0000       0.273060         7.4303 
  51   0.0000       0.278208         7.5704 
  52   0.0000       0.305280         8.3071 
  53   0.0000       0.306347         8.3361 
  54   0.0000       0.316152         8.6029 
  55   0.0000       0.323434         8.8011 
  56   0.0000       0.326344         8.8803 
  57   0.0000       0.336868         9.1667 
  58   0.0000       0.344655         9.3785 
  59   0.0000       0.356814         9.7094 
  60   0.0000       0.373675        10.1682 
  61   0.0000       0.377437        10.2706 
  62   0.0000       0.396392        10.7864 
  63   0.0000       0.404537        11.0080 
  64   0.0000       0.415031        11.2936 
  65   0.0000       0.421227        11.4622 
  66   0.0000       0.454250        12.3608 
  67   0.0000       0.472753        12.8643 
  68   0.0000       0.480092        13.0640 
  69   0.0000       0.485786        13.2189 
  70   0.0000       0.499092        13.5810 
  71   0.0000       0.506675        13.7873 
  72   0.0000       0.510642        13.8953 
  73   0.0000       0.519739        14.1428 
  74   0.0000       0.524080        14.2609 
  75   0.0000       0.531581        14.4650 
  76   0.0000       0.550272        14.9737 
  77   0.0000       0.553492        15.0613 
  78   0.0000       0.557479        15.1698 
  79   0.0000       0.582227        15.8432 
  80   0.0000       0.585109        15.9216 
  81   0.0000       0.597985        16.2720 
  82   0.0000       0.602464        16.3939 
  83   0.0000       0.618857        16.8399 
  84   0.0000       0.623671        16.9710 
  85   0.0000       0.630983        17.1699 
  86   0.0000       0.640757        17.4359 
  87   0.0000       0.643572        17.5125 
  88   0.0000       0.649189        17.6653 
  89   0.0000       0.664922        18.0934 
  90   0.0000       0.674498        18.3540 
  91   0.0000       0.674976        18.3670 
  92   0.0000       0.694306        18.8930 
  93   0.0000       0.705622        19.2010 
  94   0.0000       0.707851        19.2616 
  95   0.0000       0.748377        20.3644 
  96   0.0000       0.759066        20.6552 
  97   0.0000       0.766322        20.8527 
  98   0.0000       0.780608        21.2414 
  99   0.0000       0.793756        21.5992 
 100   0.0000       0.814488        22.1633 
 101   0.0000       0.830269        22.5928 
 102   0.0000       0.841404        22.8958 
 103   0.0000       0.848367        23.0853 
 104   0.0000       0.868072        23.6214 
 105   0.0000       0.869068        23.6486 
 106   0.0000       0.895390        24.3648 
 107   0.0000       0.904228        24.6053 
 108   0.0000       0.913518        24.8581 
 109   0.0000       0.940007        25.5789 
 110   0.0000       0.960344        26.1323 
 111   0.0000       0.976779        26.5795 
 112   0.0000       0.987290        26.8655 
 113   0.0000       1.015299        27.6277 
 114   0.0000       1.024655        27.8823 
 115   0.0000       1.044296        28.4167 
 116   0.0000       1.050122        28.5753 
 117   0.0000       1.059939        28.8424 
 118   0.0000       1.093514        29.7560 
 119   0.0000       1.106963        30.1220 
 120   0.0000       1.116949        30.3937 
 121   0.0000       1.140726        31.0407 
 122   0.0000       1.156897        31.4808 
 123   0.0000       1.168163        31.7873 
 124   0.0000       1.187512        32.3139 
 125   0.0000       1.199261        32.6336 
 126   0.0000       1.211556        32.9681 
 127   0.0000       1.256061        34.1792 
 128   0.0000       1.270197        34.5638 
 129   0.0000       1.283606        34.9287 
 130   0.0000       1.290867        35.1263 
 131   0.0000       1.306647        35.5557 
 132   0.0000       1.325411        36.0663 
 133   0.0000       1.339398        36.4469 
 134   0.0000       1.362748        37.0823 
 135   0.0000       1.402859        38.1737 
 136   0.0000       1.431330        38.9485 
 137   0.0000       1.443439        39.2780 
 138   0.0000       1.460395        39.7394 
 139   0.0000       1.470429        40.0124 
 140   0.0000       1.495996        40.7081 
 141   0.0000       1.505107        40.9561 
 142   0.0000       1.532380        41.6982 
 143   0.0000       1.558656        42.4132 
 144   0.0000       1.597597        43.4728 
 145   0.0000       1.637548        44.5599 
 146   0.0000       1.656533        45.0765 
 147   0.0000       1.664740        45.2999 
 148   0.0000       1.706482        46.4357 
 149   0.0000       1.720227        46.8098 
 150   0.0000       1.727174        46.9988 
 151   0.0000       1.750007        47.6201 
 152   0.0000       1.753068        47.7034 
 153   0.0000       1.769114        48.1401 
 154   0.0000       1.784984        48.5719 
 155   0.0000       1.788004        48.6541 
 156   0.0000       1.802782        49.0562 
 157   0.0000       1.807948        49.1968 
 158   0.0000       1.813653        49.3520 
 159   0.0000       1.836078        49.9622 
 160   0.0000       1.855455        50.4895 
 161   0.0000       1.867384        50.8141 
 162   0.0000       1.883195        51.2443 
 163   0.0000       1.896757        51.6134 
 164   0.0000       1.922944        52.3260 
 165   0.0000       1.932161        52.5768 
 166   0.0000       1.949678        53.0534 
 167   0.0000       1.971103        53.6364 
 168   0.0000       1.987864        54.0925 
 169   0.0000       1.996566        54.3293 
 170   0.0000       2.007924        54.6384 
 171   0.0000       2.036234        55.4087 
 172   0.0000       2.059607        56.0447 
 173   0.0000       2.095507        57.0216 
 174   0.0000       2.120433        57.6999 
 175   0.0000       2.126735        57.8714 
 176   0.0000       2.139419        58.2166 
 177   0.0000       2.148866        58.4736 
 178   0.0000       2.176882        59.2360 
 179   0.0000       2.191816        59.6423 
 180   0.0000       2.210894        60.1615 
 181   0.0000       2.213532        60.2333 
 182   0.0000       2.240065        60.9553 
 183   0.0000       2.260272        61.5051 
 184   0.0000       2.267709        61.7075 
 185   0.0000       2.274658        61.8966 
 186   0.0000       2.318040        63.0771 
 187   0.0000       2.331440        63.4417 
 188   0.0000       2.363315        64.3091 
 189   0.0000       2.383930        64.8700 
 190   0.0000       2.389697        65.0270 
 191   0.0000       2.431839        66.1737 
 192   0.0000       2.449018        66.6412 
 193   0.0000       2.458467        66.8983 
 194   0.0000       2.473957        67.3198 
 195   0.0000       2.490219        67.7623 
 196   0.0000       2.509256        68.2803 
 197   0.0000       2.534045        68.9549 
 198   0.0000       2.551271        69.4236 
 199   0.0000       2.556103        69.5551 
 200   0.0000       2.579705        70.1973 
 201   0.0000       2.606607        70.9294 
 202   0.0000       2.619839        71.2895 
 203   0.0000       2.630090        71.5684 
 204   0.0000       2.652693        72.1834 
 205   0.0000       2.661387        72.4200 
 206   0.0000       2.700741        73.4909 
 207   0.0000       2.720232        74.0213 
 208   0.0000       2.745955        74.7212 
 209   0.0000       2.778800        75.6150 
 210   0.0000       2.783186        75.7343 
 211   0.0000       2.798249        76.1442 
 212   0.0000       2.809324        76.4456 
 213   0.0000       2.819654        76.7267 
 214   0.0000       2.823594        76.8339 
 215   0.0000       2.849544        77.5400 
 216   0.0000       2.859713        77.8167 
 217   0.0000       2.879476        78.3545 
 218   0.0000       2.887025        78.5600 
 219   0.0000       2.909388        79.1685 
 220   0.0000       2.936193        79.8979 
 221   0.0000       2.960291        80.5536 
 222   0.0000       2.967936        80.7616 
 223   0.0000       2.980221        81.0959 
 224   0.0000       2.994893        81.4952 
 225   0.0000       3.012712        81.9800 
 226   0.0000       3.018089        82.1264 
 227   0.0000       3.024817        82.3095 
 228   0.0000       3.053344        83.0857 
 229   0.0000       3.066875        83.4539 
 230   0.0000       3.092911        84.1624 
 231   0.0000       3.100529        84.3697 
 232   0.0000       3.124955        85.0344 
 233   0.0000       3.136652        85.3526 
 234   0.0000       3.143505        85.5391 
 235   0.0000       3.164779        86.1180 
 236   0.0000       3.180418        86.5436 
 237   0.0000       3.184697        86.6600 
 238   0.0000       3.210347        87.3580 
 239   0.0000       3.224267        87.7368 
 240   0.0000       3.243019        88.2470 
 241   0.0000       3.276635        89.1618 
 242   0.0000       3.293722        89.6267 
 243   0.0000       3.310353        90.0793 
 244   0.0000       3.326332        90.5141 
 245   0.0000       3.335732        90.7699 
 246   0.0000       3.392442        92.3130 
 247   0.0000       3.404201        92.6330 
 248   0.0000       3.411251        92.8249 
 249   0.0000       3.421117        93.0933 
 250   0.0000       3.432504        93.4032 
 251   0.0000       3.453433        93.9727 
 252   0.0000       3.464639        94.2776 
 253   0.0000       3.473574        94.5208 
 254   0.0000       3.494291        95.0845 
 255   0.0000       3.512582        95.5822 
 256   0.0000       3.519309        95.7653 
 257   0.0000       3.529030        96.0298 
 258   0.0000       3.543123        96.4133 
 259   0.0000       3.552780        96.6761 
 260   0.0000       3.557829        96.8135 
 261   0.0000       3.569405        97.1285 
 262   0.0000       3.594478        97.8107 
 263   0.0000       3.603415        98.0539 
 264   0.0000       3.611542        98.2751 
 265   0.0000       3.625058        98.6429 
 266   0.0000       3.645971        99.2119 
 267   0.0000       3.661768        99.6418 
 268   0.0000       3.667067        99.7860 
 269   0.0000       3.677709       100.0755 
 270   0.0000       3.693469       100.5044 
 271   0.0000       3.715951       101.1162 
 272   0.0000       3.720503       101.2400 
 273   0.0000       3.730334       101.5076 
 274   0.0000       3.734359       101.6171 
 275   0.0000       3.770700       102.6060 
 276   0.0000       3.779939       102.8574 
 277   0.0000       3.783702       102.9598 
 278   0.0000       3.801717       103.4500 
 279   0.0000       3.825844       104.1065 
 280   0.0000       3.832782       104.2953 
 281   0.0000       3.837826       104.4325 
 282   0.0000       3.844746       104.6208 
 283   0.0000       3.871103       105.3381 
 284   0.0000       3.890793       105.8739 
 285   0.0000       3.898354       106.0796 
 286   0.0000       3.912358       106.4607 
 287   0.0000       3.929951       106.9394 
 288   0.0000       3.940822       107.2352 
 289   0.0000       3.975522       108.1795 
 290   0.0000       3.997629       108.7810 
 291   0.0000       4.009637       109.1078 
 292   0.0000       4.021039       109.4180 
 293   0.0000       4.068199       110.7013 
 294   0.0000       4.107649       111.7748 
 295   0.0000       4.148390       112.8834 
 296   0.0000       4.171462       113.5113 
 297   0.0000       4.248419       115.6054 
 298   0.0000       4.285423       116.6123 
 299   0.0000       4.324895       117.6864 
 300   0.0000       4.353113       118.4542 
 301   0.0000       4.394559       119.5820 
 302   0.0000       4.436449       120.7219 
 303   0.0000       4.454240       121.2060 
 304   0.0000       4.457910       121.3059 
 305   0.0000       4.486122       122.0736 
 306   0.0000       4.493161       122.2651 
 307   0.0000       4.509741       122.7163 
 308   0.0000       4.557258       124.0093 
 309   0.0000       4.570254       124.3629 
 310   0.0000       4.583485       124.7230 
 311   0.0000       4.613365       125.5360 
 312   0.0000       4.641206       126.2936 
 313   0.0000       4.648328       126.4874 
 314   0.0000       4.704777       128.0235 
 315   0.0000       4.747637       129.1898 
 316   0.0000       4.814686       131.0143 
 317   0.0000       4.836852       131.6174 
 318   0.0000       4.878072       132.7391 
 319   0.0000       4.886414       132.9661 
 320   0.0000       4.906462       133.5116 
 321   0.0000       4.927518       134.0846 
 322   0.0000       4.995172       135.9255 
 323   0.0000       5.011372       136.3664 
 324   0.0000       5.042022       137.2004 
 325   0.0000       5.057825       137.6304 
 326   0.0000       5.190002       141.2271 
 327   0.0000       5.238284       142.5410 
 328   0.0000       5.289982       143.9477 
 329   0.0000       5.380928       146.4225 
 330   0.0000       5.435985       147.9207 
 331   0.0000       5.467728       148.7845 
 332   0.0000       5.493397       149.4829 
 333   0.0000       5.586242       152.0094 
 334   0.0000       5.642220       153.5326 
 335   0.0000       5.727818       155.8619 
 336   0.0000       5.778391       157.2380 
 337   0.0000       5.808061       158.0454 
 338   0.0000       5.919287       161.0720 
 339   0.0000       5.972147       162.5104 
 340   0.0000       6.166659       167.8033 
 341   0.0000       6.213656       169.0822 
 342   0.0000       6.277149       170.8099 
 343   0.0000       6.291146       171.1908 
 344   0.0000       6.325832       172.1346 
 345   0.0000       6.346466       172.6961 
 346   0.0000       6.639417       180.6677 
 347   0.0000       6.705848       182.4754 
 348   0.0000       6.759456       183.9342 
 349   0.0000       6.847678       186.3348 
 350   0.0000       7.180539       195.3924 
 351   0.0000       7.189021       195.6232 
 352   0.0000       7.242388       197.0754 
 353   0.0000       7.305048       198.7805 
 354   0.0000       7.359817       200.2708 
 355   0.0000       7.373608       200.6461 
 356   0.0000       7.683336       209.0742 
 357   0.0000       7.689927       209.2535 
 358   0.0000       7.821551       212.8352 
 359   0.0000       7.901405       215.0082 
 360   0.0000      23.244428       632.5130 
 361   0.0000      23.316627       634.4777 
 362   0.0000      23.393050       636.5573 
 363   0.0000      23.577850       641.5859 
 364   0.0000      23.670643       644.1109 
 365   0.0000      23.746888       646.1857 
 366   0.0000      23.900874       650.3759 
 367   0.0000      24.137111       656.8042 
 368   0.0000      45.696132      1243.4550 
 369   0.0000      45.775865      1245.6246 

                    ********************************
                    * MULLIKEN POPULATION ANALYSIS *
                    ********************************

-----------------------
MULLIKEN ATOMIC CHARGES
-----------------------
   0 H :    0.165180
   1 C :    0.021835
   2 C :   -0.421045
   3 H :    0.171701
   4 C :    0.426182
   5 O :   -0.418960
   6 C :   -0.409190
   7 H :    0.208063
   8 C :    0.399305
   9 C :   -0.424679
  10 H :    0.172807
  11 O :   -0.407134
  12 C :   -0.177592
  13 H :    0.144070
  14 H :    0.140187
  15 H :    0.131653
  16 C :   -0.153596
  17 H :    0.131095
  18 H :    0.157083
  19 H :    0.143035
Sum of atomic charges:   -0.0000000

--------------------------------
MULLIKEN REDUCED ORBITAL CHARGES
--------------------------------
  0 H s       :     0.811942  s :     0.811942
      pz      :     0.012299  p :     0.022878
      px      :     0.003905
      py      :     0.006674
  1 C s       :     3.023515  s :     3.023515
      pz      :     0.991814  p :     2.828743
      px      :     0.946121
      py      :     0.890809
      dz2     :     0.017044  d :     0.116699
      dxz     :     0.034945
      dyz     :     0.012790
      dx2y2   :     0.020184
      dxy     :     0.031737
      f0      :     0.000504  f :     0.009208
      f+1     :     0.002001
      f-1     :     0.000812
      f+2     :     0.001478
      f-2     :     0.001397
      f+3     :     0.001470
      f-3     :     0.001546
  2 C s       :     3.298416  s :     3.298416
      pz      :     0.908438  p :     3.024629
      px      :     1.019866
      py      :     1.096325
      dz2     :     0.025193  d :     0.089731
      dxz     :     0.022600
      dyz     :     0.014716
      dx2y2   :     0.013318
      dxy     :     0.013904
      f0      :     0.001503  f :     0.008269
      f+1     :     0.001507
      f-1     :     0.001066
      f+2     :     0.001159
      f-2     :     0.000936
      f+3     :     0.000769
      f-3     :     0.001328
  3 H s       :     0.805681  s :     0.805681
      pz      :     0.004542  p :     0.022619
      px      :     0.011769
      py      :     0.006308
  4 C s       :     2.979481  s :     2.979481
      pz      :     0.848578  p :     2.389751
      px      :     0.706306
      py      :     0.834867
      dz2     :     0.043207  d :     0.187815
      dxz     :     0.047435
      dyz     :     0.026665
      dx2y2   :     0.028370
      dxy     :     0.042139
      f0      :     0.002019  f :     0.016771
      f+1     :     0.003733
      f-1     :     0.001427
      f+2     :     0.002501
      f-2     :     0.002378
      f+3     :     0.002242
      f-3     :     0.002471
  5 O s       :     3.762421  s :     3.762421
      pz      :     1.327383  p :     4.615026
      px      :     1.465172
      py      :     1.822471
      dz2     :     0.012751  d :     0.039486
      dxz     :     0.009372
      dyz     :     0.004954
      dx2y2   :     0.008102
      dxy     :     0.004307
      f0      :     0.000531  f :     0.002026
      f+1     :     0.000315
      f-1     :     0.000230
      f+2     :     0.000346
      f-2     :     0.000131
      f+3     :     0.000282
      f-3     :     0.000192
  6 C s       :     3.311958  s :     3.311958
      pz      :     1.049891  p :     3.001568
      px      :     0.871534
      py      :     1.080143
      dz2     :     0.018937  d :     0.087418
      dxz     :     0.030142
      dyz     :     0.008673
      dx2y2   :     0.012187
      dxy     :     0.017479
      f0      :     0.001244  f :     0.008245
      f+1     :     0.001236
      f-1     :     0.000638
      f+2     :     0.001417
      f-2     :     0.001139
      f+3     :     0.001345
      f-3     :     0.001227
  7 H s       :     0.768587  s :     0.768587
      pz      :     0.015606  p :     0.023350
      px      :     0.003023
      py      :     0.004720
  8 C s       :     3.033351  s :     3.033351
      pz      :     0.858774  p :     2.375207
      px      :     0.721645
      py      :     0.794787
      dz2     :     0.041176  d :     0.177296
      dxz     :     0.037366
      dyz     :     0.028807
      dx2y2   :     0.035369
      dxy     :     0.034578
      f0      :     0.001941  f :     0.014841
      f+1     :     0.002756
      f-1     :     0.001356
      f+2     :     0.001922
      f-2     :     0.002250
      f+3     :     0.002544
      f-3     :     0.002072
  9 C s       :     3.283315  s :     3.283315
      pz      :     0.928006  p :     3.039208
      px      :     1.046178
      py      :     1.065025
      dz2     :     0.025574  d :     0.093615
      dxz     :     0.027694
      dyz     :     0.012437
      dx2y2   :     0.015319
      dxy     :     0.012591
      f0      :     0.001526  f :     0.008541
      f+1     :     0.001498
      f-1     :     0.001329
      f+2     :     0.001511
      f-2     :     0.000966
      f+3     :     0.000921
      f-3     :     0.000789
 10 H s       :     0.803184  s :     0.803184
      pz      :     0.008617  p :     0.024009
      px      :     0.010251
      py      :     0.005140
 11 O s       :     3.772613  s :     3.772613
      pz      :     1.339231  p :     4.593158
      px      :     1.515219
      py      :     1.738707
      dz2     :     0.015670  d :     0.039400
      dxz     :     0.006914
      dyz     :     0.004683
      dx2y2   :     0.005104
      dxy     :     0.007029
      f0      :     0.000612  f :     0.001964
      f+1     :     0.000287
      f-1     :     0.000233
      f+2     :     0.000122
      f-2     :     0.000207
      f+3     :     0.000168
      f-3     :     0.000335
 12 C s       :     3.233766  s :     3.233766
      pz      :     0.648453  p :     2.818797
      px      :     1.110565
      py      :     1.059780
      dz2     :     0.026271  d :     0.115773
      dxz     :     0.023917
      dyz     :     0.040132
      dx2y2   :     0.015623
      dxy     :     0.009830
      f0      :     0.002814  f :     0.009256
      f+1     :     0.002286
      f-1     :     0.002464
      f+2     :     0.000279
      f-2     :     0.000282
      f+3     :     0.000914
      f-3     :     0.000218
 13 H s       :     0.835543  s :     0.835543
      pz      :     0.004647  p :     0.020387
      px      :     0.003918
      py      :     0.011822
 14 H s       :     0.840214  s :     0.840214
      pz      :     0.002138  p :     0.019600
      px      :     0.014041
      py      :     0.003420
 15 H s       :     0.848444  s :     0.848444
      pz      :     0.004100  p :     0.019904
      px      :     0.005241
      py      :     0.010563
 16 C s       :     3.239542  s :     3.239542
      pz      :     0.631337  p :     2.797712
      px      :     1.113494
      py      :     1.052881
      dz2     :     0.031587  d :     0.107648
      dxz     :     0.020459
      dyz     :     0.027540
      dx2y2   :     0.016058
      dxy     :     0.012004
      f0      :     0.002567  f :     0.008694
      f+1     :     0.001645
      f-1     :     0.002543
      f+2     :     0.000199
      f-2     :     0.000278
      f+3     :     0.001110
      f-3     :     0.000351
 17 H s       :     0.848027  s :     0.848027
      pz      :     0.002404  p :     0.020878
      px      :     0.004404
      py      :     0.014070
 18 H s       :     0.821060  s :     0.821060
      pz      :     0.003077  p :     0.021857
      px      :     0.015145
      py      :     0.003634
 19 H s       :     0.835850  s :     0.835850
      pz      :     0.004141  p :     0.021114
      px      :     0.008158
      py      :     0.008815


                     *******************************
                     * LOEWDIN POPULATION ANALYSIS *
                     *******************************

----------------------
LOEWDIN ATOMIC CHARGES
----------------------
   0 H :    0.155882
   1 C :   -0.151581
   2 C :   -0.153086
   3 H :    0.155647
   4 C :   -0.196178
   5 O :    0.108100
   6 C :   -0.150926
   7 H :    0.176459
   8 C :   -0.128546
   9 C :   -0.164561
  10 H :    0.153354
  11 O :    0.093084
  12 C :   -0.321843
  13 H :    0.111294
  14 H :    0.118769
  15 H :    0.108760
  16 C :   -0.246853
  17 H :    0.112554
  18 H :    0.109091
  19 H :    0.110579

-------------------------------
LOEWDIN REDUCED ORBITAL CHARGES
-------------------------------
  0 H s       :     0.786106  s :     0.786106
      pz      :     0.029061  p :     0.058012
      px      :     0.011542
      py      :     0.017409
  1 C s       :     2.758852  s :     2.758852
      pz      :     0.961389  p :     2.904351
      px      :     1.074188
      py      :     0.868773
      dz2     :     0.087132  d :     0.442259
      dxz     :     0.107310
      dyz     :     0.042818
      dx2y2   :     0.094544
      dxy     :     0.110455
      f0      :     0.002632  f :     0.046119
      f+1     :     0.013659
      f-1     :     0.002646
      f+2     :     0.006473
      f-2     :     0.007916
      f+3     :     0.006831
      f-3     :     0.005961
  2 C s       :     2.768615  s :     2.768615
      pz      :     0.994312  p :     2.993165
      px      :     1.026063
      py      :     0.972790
      dz2     :     0.101111  d :     0.351919
      dxz     :     0.105163
      dyz     :     0.049820
      dx2y2   :     0.045389
      dxy     :     0.050437
      f0      :     0.006991  f :     0.039387
      f+1     :     0.010879
      f-1     :     0.004718
      f+2     :     0.004717
      f-2     :     0.003961
      f+3     :     0.003436
      f-3     :     0.004685
  3 H s       :     0.786150  s :     0.786150
      pz      :     0.012559  p :     0.058203
      px      :     0.028134
      py      :     0.017510
  4 C s       :     2.722902  s :     2.722902
      pz      :     0.985834  p :     2.699867
      px      :     0.866139
      py      :     0.847894
      dz2     :     0.148458  d :     0.679569
      dxz     :     0.179967
      dyz     :     0.095630
      dx2y2   :     0.125843
      dxy     :     0.129670
      f0      :     0.009712  f :     0.093839
      f+1     :     0.025502
      f-1     :     0.006851
      f+2     :     0.012684
      f-2     :     0.013924
      f+3     :     0.011804
      f-3     :     0.013361
  5 O s       :     3.281612  s :     3.281612
      pz      :     1.346391  p :     4.506396
      px      :     1.470817
      py      :     1.689189
      dz2     :     0.030943  d :     0.098261
      dxz     :     0.028988
      dyz     :     0.014663
      dx2y2   :     0.014128
      dxy     :     0.009538
      f0      :     0.001021  f :     0.005631
      f+1     :     0.001627
      f-1     :     0.000800
      f+2     :     0.000746
      f-2     :     0.000372
      f+3     :     0.000561
      f-3     :     0.000503
  6 C s       :     2.766354  s :     2.766354
      pz      :     0.995860  p :     3.005600
      px      :     1.012810
      py      :     0.996931
      dz2     :     0.085343  d :     0.339739
      dxz     :     0.096053
      dyz     :     0.028735
      dx2y2   :     0.063330
      dxy     :     0.066278
      f0      :     0.003814  f :     0.039232
      f+1     :     0.009438
      f-1     :     0.001865
      f+2     :     0.006475
      f-2     :     0.007162
      f+3     :     0.005250
      f-3     :     0.005230
  7 H s       :     0.763803  s :     0.763803
      pz      :     0.037356  p :     0.059737
      px      :     0.008543
      py      :     0.013838
  8 C s       :     2.746706  s :     2.746706
      pz      :     0.979542  p :     2.683177
      px      :     0.878651
      py      :     0.824985
      dz2     :     0.138709  d :     0.620351
      dxz     :     0.147398
      dyz     :     0.085581
      dx2y2   :     0.117047
      dxy     :     0.131616
      f0      :     0.008529  f :     0.078312
      f+1     :     0.018922
      f-1     :     0.006376
      f+2     :     0.008398
      f-2     :     0.011809
      f+3     :     0.012487
      f-3     :     0.011791
  9 C s       :     2.768712  s :     2.768712
      pz      :     0.988619  p :     3.004378
      px      :     1.030373
      py      :     0.985386
      dz2     :     0.087552  d :     0.351745
      dxz     :     0.115191
      dyz     :     0.052556
      dx2y2   :     0.055111
      dxy     :     0.041335
      f0      :     0.006234  f :     0.039725
      f+1     :     0.009939
      f-1     :     0.005475
      f+2     :     0.004261
      f-2     :     0.005700
      f+3     :     0.004535
      f-3     :     0.003581
 10 H s       :     0.782816  s :     0.782816
      pz      :     0.022544  p :     0.063830
      px      :     0.025507
      py      :     0.015779
 11 O s       :     3.296187  s :     3.296187
      pz      :     1.382012  p :     4.507396
      px      :     1.489768
      py      :     1.635617
      dz2     :     0.032684  d :     0.097817
      dxz     :     0.025544
      dyz     :     0.016613
      dx2y2   :     0.010114
      dxy     :     0.012862
      f0      :     0.001224  f :     0.005516
      f+1     :     0.001453
      f-1     :     0.001093
      f+2     :     0.000276
      f-2     :     0.000446
      f+3     :     0.000434
      f-3     :     0.000589
 12 C s       :     2.874321  s :     2.874321
      pz      :     0.801951  p :     2.978189
      px      :     1.090154
      py      :     1.086084
      dz2     :     0.124252  d :     0.411886
      dxz     :     0.084356
      dyz     :     0.133041
      dx2y2   :     0.044869
      dxy     :     0.025368
      f0      :     0.018632  f :     0.057448
      f+1     :     0.015713
      f-1     :     0.015299
      f+2     :     0.001924
      f-2     :     0.003014
      f+3     :     0.002150
      f-3     :     0.000715
 13 H s       :     0.829148  s :     0.829148
      pz      :     0.012942  p :     0.059559
      px      :     0.013443
      py      :     0.033173
 14 H s       :     0.829397  s :     0.829397
      pz      :     0.006210  p :     0.051834
      px      :     0.035256
      py      :     0.010368
 15 H s       :     0.834469  s :     0.834469
      pz      :     0.011485  p :     0.056771
      px      :     0.016573
      py      :     0.028713
 16 C s       :     2.870092  s :     2.870092
      pz      :     0.763409  p :     2.951718
      px      :     1.101206
      py      :     1.087102
      dz2     :     0.118302  d :     0.373071
      dxz     :     0.078624
      dyz     :     0.093588
      dx2y2   :     0.049926
      dxy     :     0.032631
      f0      :     0.016690  f :     0.051972
      f+1     :     0.011546
      f-1     :     0.015641
      f+2     :     0.001732
      f-2     :     0.002786
      f+3     :     0.002613
      f-3     :     0.000964
 17 H s       :     0.827992  s :     0.827992
      pz      :     0.007742  p :     0.059454
      px      :     0.014352
      py      :     0.037359
 18 H s       :     0.827710  s :     0.827710
      pz      :     0.009627  p :     0.063199
      px      :     0.040598
      py      :     0.012974
 19 H s       :     0.827211  s :     0.827211
      pz      :     0.012152  p :     0.062210
      px      :     0.024090
      py      :     0.025968


                      *****************************
                      * MAYER POPULATION ANALYSIS *
                      *****************************

  NA   - Mulliken gross atomic population
  ZA   - Total nuclear charge
  QA   - Mulliken gross atomic charge
  VA   - Mayer's total valence
  BVA  - Mayer's bonded valence
  FA   - Mayer's free valence

  ATOM       NA         ZA         QA         VA         BVA        FA
  0 H      0.8348     1.0000     0.1652     0.9560     0.9560    -0.0000
  1 C      5.9782     6.0000     0.0218     3.8006     3.8006    -0.0000
  2 C      6.4210     6.0000    -0.4210     3.9570     3.9570    -0.0000
  3 H      0.8283     1.0000     0.1717     0.9793     0.9793     0.0000
  4 C      5.5738     6.0000     0.4262     3.7196     3.7196    -0.0000
  5 O      8.4190     8.0000    -0.4190     1.8695     1.8695     0.0000
  6 C      6.4092     6.0000    -0.4092     3.8414     3.8414    -0.0000
  7 H      0.7919     1.0000     0.2081     0.9612     0.9612    -0.0000
  8 C      5.6007     6.0000     0.3993     3.7419     3.7419    -0.0000
  9 C      6.4247     6.0000    -0.4247     3.9904     3.9904    -0.0000
 10 H      0.8272     1.0000     0.1728     0.9746     0.9746    -0.0000
 11 O      8.4071     8.0000    -0.4071     1.8541     1.8541     0.0000
 12 C      6.1776     6.0000    -0.1776     3.8185     3.8185    -0.0000
 13 H      0.8559     1.0000     0.1441     0.9617     0.9617     0.0000
 14 H      0.8598     1.0000     0.1402     0.9653     0.9653    -0.0000
 15 H      0.8683     1.0000     0.1317     0.9581     0.9581    -0.0000
 16 C      6.1536     6.0000    -0.1536     3.7951     3.7951     0.0000
 17 H      0.8689     1.0000     0.1311     0.9594     0.9594     0.0000
 18 H      0.8429     1.0000     0.1571     0.9660     0.9660     0.0000
 19 H      0.8570     1.0000     0.1430     0.9652     0.9652     0.0000

  Mayer bond orders larger than 0.100000
B(  0-H ,  1-C ) :   0.9625 B(  1-C ,  2-C ) :   1.4227 B(  1-C ,  9-C ) :   1.4433 
B(  2-C ,  3-H ) :   0.9781 B(  2-C ,  4-C ) :   1.3506 B(  4-C ,  5-O ) :   1.0464 
B(  4-C ,  6-C ) :   1.3609 B(  5-O , 16-C ) :   0.8481 B(  6-C ,  7-H ) :   0.9597 
B(  6-C ,  8-C ) :   1.3774 B(  8-C ,  9-C ) :   1.3709 B(  8-C , 11-O ) :   0.9898 
B(  9-C , 10-H ) :   0.9780 B( 11-O , 12-C ) :   0.8788 B( 12-C , 13-H ) :   0.9735 
B( 12-C , 14-H ) :   0.9807 B( 12-C , 15-H ) :   0.9765 B( 16-C , 17-H ) :   0.9823 
B( 16-C , 18-H ) :   0.9743 B( 16-C , 19-H ) :   0.9800 

-------
TIMINGS
-------

Total SCF time: 0 days 0 hours 0 min 22 sec 

Total time                  ....      22.608 sec
Sum of individual times     ....      22.294 sec  ( 98.6%)

Fock matrix formation       ....      20.924 sec  ( 92.5%)
Diagonalization             ....       0.456 sec  (  2.0%)
Density matrix formation    ....       0.012 sec  (  0.1%)
Population analysis         ....       0.038 sec  (  0.2%)
Initial guess               ....       0.208 sec  (  0.9%)
Orbital Transformation      ....       0.000 sec  (  0.0%)
Orbital Orthonormalization  ....       0.000 sec  (  0.0%)
DIIS solution               ....       0.177 sec  (  0.8%)
SOSCF solution              ....       0.362 sec  (  1.6%)


           ************************************************************
           *        Program running with 8 parallel MPI-processes     *
           *              working on a common directory               *
           ************************************************************


------------------------------------------------------------------------------- 
                              ORCA-MATRIX DRIVEN CI                            
------------------------------------------------------------------------------- 


Wavefunction type
-----------------
Correlation treatment                      ...      CCSD     
Single excitations                         ... ON
Orbital optimization                       ... OFF
Calculation of Z vector                    ... OFF
Calculation of Brueckner orbitals          ... OFF
Perturbative triple excitations            ... OFF
Calculation of F12 correction              ... OFF
Frozen core treatment                      ... chemical core (20 el)
Reference Wavefunction                     ... RHF
  Internal Orbitals:    10 ...   36 ( 27 MO's/ 54 electrons)
  Virtual  Orbitals:    37 ...  369 (333 MO's              )
Number of AO's                             ...    370
Number of electrons                        ...     74
Number of correlated electrons             ...     54

Algorithmic settings
--------------------
Integral transformation                    ... All integrals via the RI transformation
K(C) Formation                             ... RI-DLPNO
   PNO-Integral Storage                    ... ON DISK
   PNO occupation number cut-off           ... 3.330e-07
   Singles PNO occupation number cut-off   ... 9.990e-09
   PNO Mulliken prescreening cut-off       ... 1.000e-03
   Domain cut-off (Mulliken population)    ... 1.000e-03
   PNO Normalization                       ...    1
Maximum number of iterations               ...       100
Convergence tolerance (max. residuum)      ... 1.000e-06
Level shift for amplitude update           ... 2.000e-01
Maximum number of DIIS vectors             ...         7
DIIS turned on at iteration                ...         0
Damping before turning on DIIS             ...     0.500
Damping after turning on DIIS              ...     0.000
Pair specific amplitude update             ... OFF
Natural orbital iterations                 ... OFF
Perturbative natural orbital generation    ... OFF
Printlevel                                 ... 2

Singles Fock matrix elements calculated using PNOs.

Memory handling:
----------------
Maximum memory for working arrays          ...   1500 MB
Data storage in matrix containers          ... UNCOMPRESSED
Data type for integral storage             ... DOUBLE
In-Core Storage of quantities:
   Amplitudes+Sigma Vector      ... NO
   J+K operators                ... NO
   DIIS vectors                 ... NO
   3-external integrals         ... NO
   4-external integrals         ... NO

Localization treatment:
-----------------------
Localization option                        ...    6
Localization threshhold                    ... -1.0e+00
Using relative localization threshhold     ... 1.0e-08
Neglect threshold for strong pairs         ... 1.000e-04 Eh
Prescreening threshold for very weak pairs ... 1.000e-06 Eh

Initializing the integral package          ... done
Localizing the valence orbitals
------------------------------------------------------------------------------
                           ORCA ORBITAL LOCALIZATION
------------------------------------------------------------------------------

Input orbitals are from                  ... 1,3-dimethoxybenzene.gbw
Output orbitals are to                   ... 1,3-dimethoxybenzene.loc
Max. number of iterations                ... 128
Localizations seeded randomly            ... off
Convergence tolerance                    ... 2.000e-07
Using relative localization threshhold   ... 1.000e-08
Treshold for strong local MOs            ... 9.500e-01
Treshold for bond MOs                    ... 8.500e-01
Operator                                 ... 0
Orbital range for localization           ... 10 to 36
Localization criterion                   ... FOSTER-BOYS (AUGMENTED HESSIAN)
Doing the dipole integrals     ... o.k.
Initial value of the localization sum : 10417.711705
ITERATION   0 : L=10463.5339145368 DL=  4.58e+01 (AVERGE_DL)=    0.3613137212 
ITERATION   1 : L=10469.3257518187 DL=  5.79e+00 (AVERGE_DL)=    0.1284560661 
ITERATION   2 : L=10471.3577341414 DL=  2.03e+00 (AVERGE_DL)=    0.0760862893 
ITERATION   3 : L=10472.1561136269 DL=  7.98e-01 (AVERGE_DL)=    0.0476926140 
ITERATION   4 : L=10472.2805483379 DL=  1.24e-01 (AVERGE_DL)=    0.0188285646 
ITERATION   5 : L=10472.2952211186 DL=  1.47e-02 (AVERGE_DL)=    0.0064655080 
ITERATION   6 : L=10472.2980797355 DL=  2.86e-03 (AVERGE_DL)=    0.0028538058 
ITERATION   7 : L=10472.2991495426 DL=  1.07e-03 (AVERGE_DL)=    0.0017458188 
ITERATION   8 : L=10472.2997207297 DL=  5.71e-04 (AVERGE_DL)=    0.0012756621 
ITERATION   9 : L=10472.3000829517 DL=  3.62e-04 (AVERGE_DL)=    0.0010158599 
ITERATION  10 : L=10472.3003363235 DL=  2.53e-04 (AVERGE_DL)=    0.0008496218 
ITERATION  11 : L=10472.3005235305 DL=  1.87e-04 (AVERGE_DL)=    0.0007303103 
ITERATION  12 : L=10472.3006657862 DL=  1.42e-04 (AVERGE_DL)=    0.0006366216 
ITERATION  13 : L=10472.3007752918 DL=  1.10e-04 (AVERGE_DL)=    0.0005585533 
ITERATION  14 : L=10472.3008599988 DL=  8.47e-05 (AVERGE_DL)=    0.0004912539 
ITERATION  15 : L=10472.3009255913 DL=  6.56e-05 (AVERGE_DL)=    0.0004322885 
ITERATION  16 : L=10472.3009763420 DL=  5.08e-05 (AVERGE_DL)=    0.0003802483 
ITERATION  17 : L=10472.3010155438 DL=  3.92e-05 (AVERGE_DL)=    0.0003341947 
ITERATION  18 : L=10472.3010457590 DL=  3.02e-05 (AVERGE_DL)=    0.0002933995 
ITERATION  19 : L=10472.3010690024 DL=  2.32e-05 (AVERGE_DL)=    0.0002573336 
ITERATION  20 : L=10472.3010868492 DL=  1.78e-05 (AVERGE_DL)=    0.0002254894 
ITERATION  21 : L=10472.3011005277 DL=  1.37e-05 (AVERGE_DL)=    0.0001974088 
ITERATION  22 : L=10472.3011109994 DL=  1.05e-05 (AVERGE_DL)=    0.0001727243 
ITERATION  23 : L=10472.3011190011 DL=  8.00e-06 (AVERGE_DL)=    0.0001509868 
ITERATION  24 : L=10472.3011251068 DL=  6.11e-06 (AVERGE_DL)=    0.0001318909 
ITERATION  25 : L=10472.3011297647 DL=  4.66e-06 (AVERGE_DL)=    0.0001151960 
ITERATION  26 : L=10472.3011333088 DL=  3.54e-06 (AVERGE_DL)=    0.0001004850 
ITERATION  27 : L=10472.3011360086 DL=  2.70e-06 (AVERGE_DL)=    0.0000877036 
ITERATION  28 : L=10472.3011380608 DL=  2.05e-06 (AVERGE_DL)=    0.0000764624 
ITERATION  29 : L=10472.3011396192 DL=  1.56e-06 (AVERGE_DL)=    0.0000666337 
ITERATION  30 : L=10472.3011408039 DL=  1.18e-06 (AVERGE_DL)=    0.0000580963 
ITERATION  31 : L=10472.3011417042 DL=  9.00e-07 (AVERGE_DL)=    0.0000506454 
LOCALIZATION SUM CONVERGED

------------------------------------------------------
AUGMENTED HESSIAN OPTIMIZATION OF FOSTER-BOYS ORBITALS
------------------------------------------------------

Spin operator:           0
Orbital window:          10 to 36
Number of iterations:    128
Gradient tolerance:      2.000e-07
Number of pairs:         351
Davidson threshold:      2000
Diagonalization method:  LAPACK
Iter:    0   L: 10472.3011417042   Grad. norm: 5.262483e-03
   *** Likely close to a maximum now. ***
       Augmented Hessian eigenvalues:  5.71e-06 -3.04e-01 -5.46e-01 -8.22e-01 ... 
Iter:    1   L: 10472.3011445557   Grad. norm: 7.864636e-05
Iter:    2   L: 10472.3011445559   Grad. norm: 3.963517e-09
LOCALIZATION HAS CONVERGED.

Eigenvalues of the Hessian:
  0 -3.077e-01
  1 -5.384e-01
  2 -8.219e-01
  3 -1.075e+00
  4 -1.842e+00
  5 -3.370e+00
  6 -3.521e+00
  7 -5.252e+00
  8 -5.343e+00
  9 -5.345e+00
    ...


------------------------------------------------------------------------------- 
                    LOCALIZED MOLECULAR ORBITAL COMPOSITIONS                   
------------------------------------------------------------------------------- 

The Mulliken populations for each LMO on each atom are computed
The LMO`s will be ordered according to atom index and type
  (A) Strongly localized MO`s have populations of >=0.950 on one atom
  (B) Two center bond orbitals have populations of >=0.850 on two atoms
  (C) Other MO`s are considered to be `delocalized`

FOUND  -   4 strongly local MO`s
       -  23 two center bond MO`s
       -   0 significantly delocalized MO`s

Rather strongly localized orbitals:
MO  13:  11O  -   0.985316
MO  12:  11O  -   0.967968
MO  11:   5O  -   0.966967
MO  10:   5O  -   0.975686
Bond-like localized orbitals:
MO  36:  19H  -   0.443657  and  16C  -   0.587598
MO  35:  18H  -   0.434048  and  16C  -   0.585401
MO  34:  17H  -   0.453865  and  16C  -   0.581950
MO  33:  16C  -   0.319740  and   5O  -   0.688948
MO  32:  15H  -   0.453016  and  12C  -   0.580644
MO  31:  14H  -   0.445077  and  12C  -   0.580470
MO  30:  13H  -   0.443871  and  12C  -   0.589104
MO  29:  12C  -   0.333395  and  11O  -   0.675546
MO  28:  11O  -   0.653070  and   8C  -   0.375659
MO  27:  10H  -   0.418023  and   9C  -   0.608446
MO  26:   9C  -   0.559364  and   8C  -   0.295885
MO  25:   9C  -   0.525396  and   8C  -   0.467966
MO  24:   9C  -   0.510623  and   1C  -   0.513185
MO  23:   8C  -   0.524445  and   6C  -   0.502941
MO  22:   7H  -   0.398170  and   6C  -   0.630390
MO  21:   6C  -   0.513620  and   4C  -   0.418576
MO  20:   6C  -   0.574049  and   4C  -   0.347943
MO  19:   5O  -   0.657090  and   4C  -   0.374729
MO  18:   4C  -   0.527289  and   2C  -   0.511197
MO  17:   3H  -   0.415785  and   2C  -   0.611871
MO  16:   2C  -   0.520017  and   1C  -   0.382640
MO  15:   2C  -   0.553949  and   1C  -   0.402711
MO  14:   1C  -   0.591745  and   0H  -   0.430000
Localized MO's were stored in: 1,3-dimethoxybenzene.loc

Localizing the core orbitals
------------------------------------------------------------------------------
                           ORCA ORBITAL LOCALIZATION
------------------------------------------------------------------------------

Input orbitals are from                  ... 1,3-dimethoxybenzene.loc
Output orbitals are to                   ... 1,3-dimethoxybenzene.loc
Max. number of iterations                ... 128
Localizations seeded randomly            ... off
Convergence tolerance                    ... 2.000e-07
Using relative localization threshhold   ... 1.000e-08
Treshold for strong local MOs            ... 9.500e-01
Treshold for bond MOs                    ... 8.500e-01
Operator                                 ... 0
Orbital range for localization           ... 0 to 9
Localization criterion                   ... FOSTER-BOYS (AUGMENTED HESSIAN)
Doing the dipole integrals     ... o.k.
Initial value of the localization sum :  3917.408284
ITERATION   0 : L= 3917.4082879849 DL=  4.11e-06 (AVERGE_DL)=    0.0003023392 
ITERATION   1 : L= 3917.4082879849 DL=  0.00e+00 (AVERGE_DL)=    0.0000000000 
LOCALIZATION SUM CONVERGED

------------------------------------------------------
AUGMENTED HESSIAN OPTIMIZATION OF FOSTER-BOYS ORBITALS
------------------------------------------------------

Spin operator:           0
Orbital window:          0 to 9
Number of iterations:    128
Gradient tolerance:      2.000e-07
Number of pairs:         45
Davidson threshold:      2000
Diagonalization method:  LAPACK
Iter:    0   L: 3917.4082879849   Grad. norm: 4.922031e-04
   *** Likely close to a maximum now. ***
       Augmented Hessian eigenvalues:  6.33e-10 -2.71e+01 -2.72e+01 -2.75e+01 ... 
Iter:    1   L: 3917.4082879852   Grad. norm: 3.071287e-15
LOCALIZATION HAS CONVERGED.

Eigenvalues of the Hessian:
  0 -2.712e+01
  1 -2.719e+01
  2 -2.755e+01
  3 -2.764e+01
  4 -2.870e+01
  5 -2.896e+01
  6 -2.942e+01
  7 -2.987e+01
  8 -3.043e+01
  9 -3.057e+01
    ...


------------------------------------------------------------------------------- 
                    LOCALIZED MOLECULAR ORBITAL COMPOSITIONS                   
------------------------------------------------------------------------------- 

The Mulliken populations for each LMO on each atom are computed
The LMO`s will be ordered according to atom index and type
  (A) Strongly localized MO`s have populations of >=0.950 on one atom
  (B) Two center bond orbitals have populations of >=0.850 on two atoms
  (C) Other MO`s are considered to be `delocalized`

FOUND  -  10 strongly local MO`s
       -   0 two center bond MO`s
       -   0 significantly delocalized MO`s

Rather strongly localized orbitals:
MO   9:  16C  -   1.000235
MO   8:  12C  -   1.000288
MO   7:  11O  -   0.999441
MO   6:   9C  -   1.001321
MO   5:   8C  -   1.001243
MO   4:   6C  -   1.001441
MO   3:   5O  -   0.999377
MO   2:   4C  -   1.000853
MO   1:   2C  -   1.001497
MO   0:   1C  -   1.001799
Localized MO's were stored in: 1,3-dimethoxybenzene.loc

Warning: reference  - re-canonicalizations have been set to INT 1 VIRT 1
Warning: internal orbitals are localized - no re-canonicalization of internal orbitals
Warning: UsePNO is turned on - no re-canonicalization of internal and virtual orbitals

--------------------------
CLOSED-SHELL FOCK OPERATOR
--------------------------

MDCI_FockCPCM: ediel   =  -0.016840284000
MDCI_FockCPCM: <VCPCM> =  -0.256016955562
RI-JK section for the Fock operator:
  RHF full Fock operator         ... done
  RHF frozen core Fock operator  ... done
Time needed for Fock operator              ...            1.717 sec
Reference energy                           ...   -458.596177831

--------------
DLPNO SETTINGS (2015 fully linear scaling implementation)
--------------

TCutMKN:           1.000e-03
TCutPAO:           1.000e-03
TCutPNO:           3.330e-07
TCutPNOSingles:    9.990e-09
TCutEN:            9.700e-01
TCutPAOExt:        1.000e-01
TCutPairs:         1.000e-04
TCutPre:           1.000e-06
TCutOSV:           1.000e-06
TCutDOij:          1.000e-05
TCutDO:            1.000e-02
TCutC:             1.000e-04
TCutCPAO:          1.000e-03
TCutCMO:           1.000e-03
TScaleDOMP2PreScr: 2.000e+00
TScaleMKNMP2PreScr:1.000e+01
TScalePNOMP2PreScr:1.000e+00
PAO overlap thresh 1.000e-08
Using PNOs for Singles Fock computation
Use new domains
Use fully linear algorithm

--------------------------
[...]
 34   0.000001661181   0.000005955861         0.053

      *** CONVERGENCE OF RESIDUAL NORM REACHED ***
       --- The STEOM iterations have converged ---
Solving Root No  10 
FollowCIS is 1
Iter    Delta-E          Residual              Time
---------------------------------------------------
  0   0.307153153292   0.004244640173         0.053
  1   0.003718724127   0.000623597917         0.052
  2   0.002757564175   0.000317129906         0.052
  3   0.010448475536   0.009389112612         0.052
  4   0.011225826259   0.000587708811         0.052
  5   0.003263421913   0.003132376644         0.052
  6   0.003522025355   0.000790311633         0.052
  7   0.002475386182   0.003536601007         0.052
  8   0.003872854272   0.000431973912         0.052
  9   0.000282387281   0.000282597975         0.052
 10   0.002743426806   0.002312207600         0.052
 11   0.004394914434   0.000693028394         0.052
 12   0.002270083440   0.000572202551         0.052
 13   0.002800391263   0.001084274623         0.053
 14   0.006291905792   0.000655996855         0.052
 15   0.001930799512   0.000701189561         0.052
 16   0.002720776938   0.001057118193         0.053
 17   0.001364493392   0.000394530918         0.052
 18   0.002938025804   0.003251284343         0.053
 19   0.002178256563   0.000196708288         0.053
 20   0.000210499806   0.000082514301         0.053
 21   0.000297346302   0.000128234763         0.053
 22   0.004549664770   0.001572164752         0.053
 23   0.003283528560   0.000127598375         0.053
 24   0.000704779887   0.000058923343         0.053
 25   0.000475415290   0.000055749597         0.053
 26   0.000527275010   0.000145893411         0.053
 27   0.001097872182   0.000560702934         0.053
  --- complex eigenvalues and eigenvectors
 27   0.001097872182   0.000560702934         0.053
 27   0.001097872182   0.000560702934         0.053
 28   0.003252530655   0.000222448461         0.053
  --- complex eigenvalues and eigenvectors
 28   0.003252530655   0.000222448461         0.053
 28   0.003252530655   0.000222448461         0.053
 29   0.000341616166   0.000050396697         0.053
 30   0.000060563144   0.000034420838         0.053
  --- complex eigenvalues and eigenvectors
 30   0.000060563144   0.000034420838         0.053
 30   0.000060563144   0.000034420838         0.053
 31   0.000337879409   0.000204081564         0.053
  --- complex eigenvalues and eigenvectors
 31   0.000337879409   0.000204081564         0.053
 31   0.000337879409   0.000204081564         0.053
 32   0.000961865853   0.000127162799         0.053
  --- complex eigenvalues and eigenvectors
 32   0.000961865853   0.000127162799         0.053
 32   0.000961865853   0.000127162799         0.053
 33   0.000250877316   0.000030290674         0.053
  --- complex eigenvalues and eigenvectors
 33   0.000250877316   0.000030290674         0.053
 33   0.000250877316   0.000030290674         0.053
 34   0.000052047153   0.000036433317         0.053
 35   0.000464064246   0.000028667256         0.053
 36   0.000325268868   0.000011900540         0.053
  --- complex eigenvalues and eigenvectors
 36   0.000325268868   0.000011900540         0.053
 36   0.000325268868   0.000011900540         0.053
 37   0.006424827001   0.000005529303         0.053

      *** CONVERGENCE OF RESIDUAL NORM REACHED ***
       --- The STEOM iterations have converged ---

------------------
STEOM-CCSD RESULTS
------------------

IROOT=  1:  0.160837 au     4.377 eV   35299.7 cm**-1
  Amplitude    Excitation
   0.395875    35 ->  37
  -0.358930    35 ->  38
  -0.670798    36 ->  37
  -0.488400    36 ->  38

Percentage Active Character     98.25

  Amplitude    Excitation in Canonical Basis
  -0.392842    35 ->  37
   0.353856    35 ->  38
   0.664249    36 ->  37
   0.476002    36 ->  38
  -0.114661    36 ->  39

IROOT=  2:  0.204339 au     5.560 eV   44847.2 cm**-1
  Amplitude    Excitation
  -0.286274    35 ->  37
  -0.120381    35 ->  38
  -0.632630    36 ->  37
   0.673043    36 ->  38

Percentage Active Character     95.45

Warning:: the state may have not converged with respect to active space 
-------------------- Handle with Care -------------------- 

  Amplitude    Excitation in Canonical Basis
   0.283659    35 ->  37
   0.117167    35 ->  38
   0.629438    36 ->  37
  -0.666451    36 ->  38

IROOT=  3:  0.237195 au     6.454 eV   52058.3 cm**-1
  Amplitude    Excitation
   0.138418    33 ->  37
   0.290470    34 ->  37
  -0.125777    34 ->  38
  -0.659743    35 ->  37
   0.266345    35 ->  38
  -0.209037    36 ->  37
  -0.477979    36 ->  38

Percentage Active Character     91.08

Warning:: the state may have not converged with respect to active space 
-------------------- Handle with Care -------------------- 

  Amplitude    Excitation in Canonical Basis
  -0.331314    34 ->  37
   0.128779    34 ->  38
   0.656499    35 ->  37
  -0.266500    35 ->  38
   0.208032    36 ->  37
   0.472765    36 ->  38
  -0.101277    36 ->  42

IROOT=  4:  0.250501 au     6.816 eV   54978.6 cm**-1
  Amplitude    Excitation
   0.202202    34 ->  37
   0.236405    34 ->  38
  -0.330593    35 ->  37
  -0.771015    35 ->  38
   0.266320    36 ->  37
   0.169956    36 ->  40
   0.133696    36 ->  41
   0.113572    36 ->  42

Percentage Active Character     94.27

Warning:: the state may have not converged with respect to active space 
-------------------- Handle with Care -------------------- 

  Amplitude    Excitation in Canonical Basis
  -0.206227    34 ->  37
  -0.253535    34 ->  38
   0.330093    35 ->  37
   0.761552    35 ->  38
  -0.112459    35 ->  39
  -0.269084    36 ->  37
  -0.177612    36 ->  40
   0.128386    36 ->  42

IROOT=  5:  0.264393 au     7.194 eV   58027.5 cm**-1
  Amplitude    Excitation
  -0.105196    34 ->  38
   0.169713    34 ->  43
   0.208170    35 ->  38
   0.631553    36 ->  40
   0.420107    36 ->  41
   0.460851    36 ->  42
  -0.137651    36 ->  43
   0.103877    36 ->  44

Percentage Active Character     92.54

Warning:: the state may have not converged with respect to active space 
-------------------- Handle with Care -------------------- 

  Amplitude    Excitation in Canonical Basis
   0.112875    34 ->  38
   0.172009    34 ->  45
  -0.205293    35 ->  38
  -0.108211    35 ->  45
  -0.681570    36 ->  40
  -0.183567    36 ->  41
   0.463731    36 ->  42
   0.137587    36 ->  43
  -0.102464    36 ->  45
  -0.108034    36 ->  56
  -0.101839    36 ->  57
   0.144372    36 ->  60

IROOT=  6:  0.271757 au     7.395 eV   59643.8 cm**-1
  Amplitude    Excitation
   0.107191    34 ->  42
   0.676999    36 ->  39
   0.628870    36 ->  40
  -0.143927    36 ->  41
   0.104045    36 ->  43
  -0.177762    36 ->  44

Percentage Active Character     92.73

Warning:: the state may have not converged with respect to active space 
-------------------- Handle with Care -------------------- 

  Amplitude    Excitation in Canonical Basis
   0.698857    36 ->  39
  -0.474715    36 ->  40
   0.272883    36 ->  41
  -0.158886    36 ->  42
   0.217839    36 ->  45
   0.105948    36 ->  50

IROOT=  7:  0.284047 au     7.729 eV   62341.0 cm**-1
  Amplitude    Excitation
  -0.110689    33 ->  43
   0.202978    34 ->  41
   0.196856    34 ->  42
  -0.193828    35 ->  40
  -0.263348    35 ->  41
  -0.282467    35 ->  42
   0.140935    36 ->  39
   0.278841    36 ->  41
  -0.108324    36 ->  42
   0.577557    36 ->  43
  -0.334100    36 ->  44

Percentage Active Character     74.95

Warning:: the state may have not converged with respect to active space 
-------------------- Handle with Care -------------------- 

  Amplitude    Excitation in Canonical Basis
  -0.118233    33 ->  45
   0.101912    34 ->  37
  -0.104871    34 ->  38
  -0.120815    34 ->  40
  -0.115410    34 ->  41
   0.258533    34 ->  42
   0.223906    35 ->  40
   0.153180    35 ->  41
  -0.300265    35 ->  42
  -0.130645    36 ->  41
   0.159662    36 ->  44
   0.649704    36 ->  45
   0.117164    36 ->  47
  -0.147162    36 ->  61
  -0.101508    36 ->  65
   0.112481    36 ->  72

IROOT=  8:  0.294483 au     8.013 eV   64631.5 cm**-1
  Amplitude    Excitation
   0.110811    33 ->  39
  -0.107419    34 ->  38
   0.141272    34 ->  39
   0.108856    34 ->  44
  -0.286857    35 ->  39
  -0.121301    35 ->  40
  -0.460900    36 ->  39
   0.364930    36 ->  40
  -0.437006    36 ->  41
  -0.267339    36 ->  42
  -0.379620    36 ->  44

Percentage Active Character     75.96

Warning:: the state may have not converged with respect to active space 
-------------------- Handle with Care -------------------- 

  Amplitude    Excitation in Canonical Basis
   0.132730    34 ->  38
   0.184547    34 ->  39
  -0.307704    35 ->  39
  -0.469700    36 ->  39
  -0.361964    36 ->  40
   0.458431    36 ->  41
  -0.331865    36 ->  42
  -0.112947    36 ->  43
   0.186676    36 ->  45

IROOT=  9:  0.294778 au     8.021 eV   64696.3 cm**-1
  Amplitude    Excitation
   0.118065    33 ->  39
   0.159966    34 ->  39
   0.107323    34 ->  44
  -0.312733    35 ->  39
  -0.106681    35 ->  40
  -0.460687    36 ->  39
   0.367440    36 ->  40
  -0.427518    36 ->  41
  -0.270441    36 ->  42
  -0.383762    36 ->  44

Percentage Active Character     75.77

Warning:: the state may have not converged with respect to active space 
-------------------- Handle with Care -------------------- 

  Amplitude    Excitation in Canonical Basis
   0.210994    34 ->  39
  -0.325629    35 ->  39
  -0.469439    36 ->  39
  -0.365212    36 ->  40
   0.454391    36 ->  41
  -0.326477    36 ->  42
  -0.119690    36 ->  43
   0.100565    36 ->  44
   0.191889    36 ->  45

IROOT= 10:  0.309406 au     8.419 eV   67906.7 cm**-1
  Amplitude    Excitation
   0.236597    34 ->  40
  -0.478924    36 ->  41
   0.638931    36 ->  42
   0.449599    36 ->  43
   0.137201    36 ->  44

Percentage Active Character     93.76

Warning:: the state may have not converged with respect to active space 
-------------------- Handle with Care -------------------- 

  Amplitude    Excitation in Canonical Basis
  -0.215507    34 ->  40
   0.147622    36 ->  41
   0.885860    36 ->  43
   0.142444    36 ->  45



-------------------
CPCM SOLVENT SHIFT
-------------------

Reading the CPCM data                  ... done
Making difference densities            ... done
Computing the potentials               ... done
Calculating charges                    ... done

---------------------------------
     CALCULATED SOLVENT SHIFTS   
            CPCM  MODEL          
---------------------------------

Contributions of the 'fast' term to the solvent shift

 State Shift(Eh) Shift(eV) Shift(cm**-1) Shift(nm) Esteom(eV)  Esteom+SHIFT(eV)
-------------------------------------------------------------------------------
   0: -0.0003984 -0.011      -87.4        0.7      4.377          4.366
   1: -0.0003402 -0.009      -74.7        0.4      5.560          5.551
   2: -0.0011057 -0.030     -242.7        0.9      6.454          6.424
   3: -0.0016580 -0.045     -363.9        1.2      6.816          6.771
   4: -0.0017439 -0.047     -382.7        1.1      7.194          7.147
   5: -0.0044332 -0.121     -973.0        2.8      7.395          7.274
   6: -0.0035470 -0.097     -778.5        2.0      7.729          7.633
   7: -0.0109220 -0.297    -2397.1        6.0      8.013          7.716
   8: -0.0112152 -0.305    -2461.5        6.1      8.021          7.716
   9: -0.0120206 -0.327    -2638.2        6.0      8.419          8.092

WARNING: fewer states than desired (NRoots)!
Calculating the Dipole integrals                  ... done
Transforming integrals                            ... done
-----------------------------------------------------------------------------
         ABSORPTION SPECTRUM VIA TRANSITION ELECTRIC DIPOLE MOMENTS
-----------------------------------------------------------------------------
State   Energy  Wavelength   fosc         T2         TX        TY        TZ  
        (cm-1)    (nm)                  (au**2)     (au)      (au)      (au) 
-----------------------------------------------------------------------------
   1   35212.3    284.0   0.029085774   0.27193   0.42654   0.19182   0.23059
   2   44772.5    223.4   0.245473225   1.80496   0.07229   0.36834   1.28987
   3   51815.7    193.0   0.809792646   5.14503   2.14444   0.32875   0.66194
   4   54614.7    183.1   0.421185263   2.53886   0.59622   0.74909   1.27248
   5   57644.8    173.5   0.142543842   0.81407   0.70535   0.31767   0.46322
   6   58670.8    170.4   0.003593026   0.02016   0.03347   0.06693   0.03666
   7   61562.5    162.4   0.008063587   0.04312   0.02571   0.15678   0.12770
   8   62234.4    160.7   0.010161681   0.05375   0.18970   0.07951   0.07525
   9   62234.8    160.7   0.008218567   0.04347   0.17442   0.10948   0.02673
  10   65268.5    153.2   0.017206999   0.08679   0.02968   0.12032   0.26697

 STEOM-CCSD done in (  113.2)


------------------------------------------------------------------------------- 
                                     TIMINGS                                   
------------------------------------------------------------------------------- 


Total execution time                   ...      695.040 sec

Localization of occupied MO's          ...        0.401 sec (  0.1%)
Fock Matrix Formation                  ...        1.717 sec (  0.2%)
Global overlap, Fock, MKN matrices     ...        0.114 sec (  0.0%)
Differential overlap integrals         ...        0.117 sec (  0.0%)
Organizing maps                        ...        0.014 sec (  0.0%)
RI 3-index integral generations        ...        4.180 sec (  0.6%)
RI-PNO integral transformation         ...      133.090 sec ( 19.1%)
Initial Guess                          ...       13.348 sec (  1.9%)
DIIS Solver                            ...        0.244 sec (  0.0%)
State Vector Update                    ...        0.015 sec (  0.0%)
Sigma-vector construction              ...      124.917 sec ( 18.0%)
  <D|H|D>(0-ext)                       ...        6.020 sec (  4.8% of sigma)
  <D|H|D>(2-ext Fock)                  ...        0.026 sec (  0.0% of sigma)
  <D|H|D>(2-ext)                       ...       33.549 sec ( 26.9% of sigma)
  <D|H|D>(4-ext)                       ...        8.125 sec (  6.5% of sigma)
  <D|H|D>(4-ext-corr)                  ...       50.403 sec ( 40.3% of sigma)
  CCSD doubles correction              ...        0.140 sec (  0.1% of sigma)
  <S|H|S>                              ...        0.527 sec (  0.4% of sigma)
  <S|H|D>(1-ext)                       ...        0.690 sec (  0.6% of sigma)
  <D|H|S>(1-ext)                       ...        0.009 sec (  0.0% of sigma)
  <S|H|D>(3-ext)                       ...        0.171 sec (  0.1% of sigma)
  Fock-dressing                        ...       14.045 sec ( 11.2% of sigma)
  Singles amplitudes                   ...        0.630 sec (  0.5% of sigma)
  (ik|jl)-dressing                     ...        4.962 sec (  4.0% of sigma)
  (ij|ab),(ia|jb)-dressing             ...        4.392 sec (  3.5% of sigma)
  Pair energies                        ...        0.006 sec (  0.0% of sigma)
Total Time for computing EOM-CCSD      ...      267.836 sec ( 38.5% of ALL)
  Dressing integrals                   ...        4.638 sec (  1.7% of (EOM))
  EOM Singles                          ...        2.459 sec (  0.9% of (EOM))
  EOM Doubles                          ...      245.399 sec ( 91.6% of (EOM))
  Build Hamiltonian                    ...        1.364 sec (  0.5% of (EOM))
  Diagonalize Hamiltonian              ...        0.119 sec (  0.0% of (EOM))
  Ritz vectors                         ...        3.152 sec (  1.2% of (EOM))
  Residual vectors                     ...        3.398 sec (  1.3% of (EOM))
One-particle density matrix            ...        0.306 sec (  0.0%)


-------------------------   --------------------
FINAL SINGLE POINT ENERGY      -460.221857854501
-------------------------   --------------------


                            ***************************************
                            *     ORCA property calculations      *
                            ***************************************

                                    ---------------------
                                    Active property flags
                                    ---------------------
   (+) Dipole Moment


------------------------------------------------------------------------------
                       ORCA ELECTRIC PROPERTIES CALCULATION
------------------------------------------------------------------------------

Dipole Moment Calculation                       ... on
Quadrupole Moment Calculation                   ... off
Polarizability Calculation                      ... off
GBWName                                         ... 1,3-dimethoxybenzene.gbw
Electron density file                           ... 1,3-dimethoxybenzene.scfp
The origin for moment calculation is the CENTER OF MASS  = (13.140567,  7.615466 11.818039)

-------------
DIPOLE MOMENT
-------------
                                X             Y             Z
Electronic contribution:     -0.66259       0.54021       5.20434
Nuclear contribution   :      0.61995      -0.29085      -6.64040
                        -----------------------------------------
Total Dipole Moment    :     -0.04264       0.24936      -1.43605
                        -----------------------------------------
Magnitude (a.u.)       :      1.45817
Magnitude (Debye)      :      3.70637



--------------------
Rotational spectrum 
--------------------
 
Rotational constants in cm-1:     0.061284     0.035991     0.023023 
Rotational constants in MHz :  1837.237730  1078.993516   690.223506 

 Dipole components along the rotational axes: 
x,y,z [a.u.] :    -0.123142    -1.316705    -0.614308 
x,y,z [Debye]:    -0.313002    -3.346799    -1.561447 

 

                           *** MDCI DENSITY ***

------------------------------------------------------------------------------
                       ORCA ELECTRIC PROPERTIES CALCULATION
------------------------------------------------------------------------------

Dipole Moment Calculation                       ... on
Quadrupole Moment Calculation                   ... off
Polarizability Calculation                      ... off
GBWName                                         ... 1,3-dimethoxybenzene.gbw
Electron density file                           ... 1,3-dimethoxybenzene.mdcip
The origin for moment calculation is the CENTER OF MASS  = (13.140567,  7.615466 11.818039)

-------------
DIPOLE MOMENT
-------------
                                X             Y             Z
Electronic contribution:     -0.66872       0.51225       5.24814
Nuclear contribution   :      0.61995      -0.29085      -6.64040
                        -----------------------------------------
Total Dipole Moment    :     -0.04877       0.22140      -1.39226
                        -----------------------------------------
Magnitude (a.u.)       :      1.41060
Magnitude (Debye)      :      3.58546



--------------------
Rotational spectrum 
--------------------
 
Rotational constants in cm-1:     0.061284     0.035991     0.023023 
Rotational constants in MHz :  1837.237730  1078.993516   690.223506 

 Dipole components along the rotational axes: 
x,y,z [a.u.] :    -0.121057    -1.282476    -0.574796 
x,y,z [Debye]:    -0.307703    -3.259795    -1.461014 

 

Timings for individual modules:

Sum of individual times         ...      718.783 sec (=  11.980 min)
GTO integral calculation        ...        0.427 sec (=   0.007 min)   0.1 %
SCF iterations                  ...       22.752 sec (=   0.379 min)   3.2 %
MDCI module                     ...      695.605 sec (=  11.593 min)  96.8 %
                             ****ORCA TERMINATED NORMALLY****
TOTAL RUN TIME: 0 days 0 hours 11 minutes 59 seconds 92 msec
