
                                 *****************
                                 * O   R   C   A *
                                 *****************

           --- An Ab Initio, DFT and Semiempirical electronic structure package ---

                  #######################################################
                  #                        -***-                        #
                  #          Department of theory and spectroscopy      #
                  #               Directorship: Frank Neese             #
                  #        Max Planck Institute fuer Kohlenforschung    #
                  #                Kaiser Wilhelm Platz 1               #
                  #                 D-45470 Muelheim/Ruhr               #
                  #                      Germany                        #
                  #                                                     #
                  #                  All rights reserved                #
                  #                        -***-                        #
                  #######################################################


                         Program Version 4.2.1 -  RELEASE  -


 With contributions from (in alphabetic order):
   Daniel Aravena         : Magnetic Suceptibility
   Michael Atanasov       : Ab Initio Ligand Field Theory (pilot matlab implementation)
   Alexander A. Auer      : GIAO ZORA, VPT2
   Ute Becker             : Parallelization
   Giovanni Bistoni       : ED, misc. LED, open-shell LED, HFLD
   Martin Brehm           : Molecular dynamics
   Dmytro Bykov           : SCF Hessian
   Vijay G. Chilkuri      : MRCI spin determinant printing, contributions to CSF-ICE
   Dipayan Datta          : RHF DLPNO-CCSD density
   Achintya Kumar Dutta   : EOM-CC, STEOM-CC
   Dmitry Ganyushin       : Spin-Orbit,Spin-Spin,Magnetic field MRCI
   Miquel Garcia          : C-PCM Hessian, Gaussian charge scheme
   Yang Guo               : DLPNO-NEVPT2, CIM, IAO-localization
   Andreas Hansen         : Spin unrestricted coupled pair/coupled cluster methods
   Benjamin Helmich-Paris : CASSCF linear response (MC-RPA)
   Lee Huntington         : MR-EOM, pCC
   Robert Izsak           : Overlap fitted RIJCOSX, COSX-SCS-MP3, EOM
   Christian Kollmar      : KDIIS, OOCD, Brueckner-CCSD(T), CCSD density
   Simone Kossmann        : Meta GGA functionals, TD-DFT gradient, OOMP2, MP2 Hessian
   Martin Krupicka        : AUTO-CI
   Lucas Lang             : DCDCAS
   Dagmar Lenk            : GEPOL surface, SMD
   Dimitrios Liakos       : Extrapolation schemes; Compound Job, initial MDCI parallelization
   Dimitrios Manganas     : Further ROCIS development; embedding schemes
   Dimitrios Pantazis     : SARC Basis sets
   Taras Petrenko         : DFT Hessian,TD-DFT gradient, ASA, ECA, R-Raman, ABS, FL, XAS/XES, NRVS
   Peter Pinski           : DLPNO-MP2, DLPNO-MP2 Gradient
   Christoph Reimann      : Effective Core Potentials
   Marius Retegan         : Local ZFS, SOC
   Christoph Riplinger    : Optimizer, TS searches, QM/MM, DLPNO-CCSD(T), (RO)-DLPNO pert. Triples
   Tobias Risthaus        : Range-separated hybrids, TD-DFT gradient, RPA, STAB
   Michael Roemelt        : Original ROCIS implementation
   Masaaki Saitow         : Open-shell DLPNO-CCSD energy and density
   Barbara Sandhoefer     : DKH picture change effects
   Avijit Sen             : IP-ROCIS
   Kantharuban Sivalingam : CASSCF convergence, NEVPT2, FIC-MRCI
   Bernardo de Souza      : ESD, SOC TD-DFT
   Georgi Stoychev        : AutoAux, RI-MP2 NMR
   Willem Van den Heuvel  : Paramagnetic NMR
   Boris Wezisla          : Elementary symmetry handling
   Frank Wennmohs         : Technical directorship


 We gratefully acknowledge several colleagues who have allowed us to
 interface, adapt or use parts of their codes:
   Stefan Grimme, W. Hujo, H. Kruse,             : VdW corrections, initial TS optimization,
                  C. Bannwarth                     DFT functionals, gCP, sTDA/sTD-DF
   Ed Valeev, F. Pavosevic, A. Kumar             : LibInt (2-el integral package), F12 methods
   Garnet Chan, S. Sharma, J. Yang, R. Olivares  : DMRG
   Ulf Ekstrom                                   : XCFun DFT Library
   Mihaly Kallay                                 : mrcc  (arbitrary order and MRCC methods)
   Andreas Klamt, Michael Diedenhofen            : otool_cosmo (COSMO solvation model)
   Jiri Pittner, Ondrej Demel                    : Mk-CCSD
   Frank Weinhold                                : gennbo (NPA and NBO analysis)
   Christopher J. Cramer and Donald G. Truhlar   : smd solvation model
   Lars Goerigk                                  : TD-DFT with DH, B97 family of functionals
   V. Asgeirsson, H. Jonsson                     : NEB implementation
   FAccTs GmbH                                   : IRC, NEB, NEB-TS, Multilevel, MM, QM/MM, CI optimization
   S Lehtola, MJT Oliveira, MAL Marques          : LibXC Library


 Your calculation uses the libint2 library for the computation of 2-el integrals
 For citations please refer to: http://libint.valeyev.net

 Your ORCA version has been built with support for libXC version: 4.2.3
 For citations please refer to: https://tddft.org/programs/libxc/

 This ORCA versions uses:
   CBLAS   interface :  Fast vector & matrix operations
   LAPACKE interface :  Fast linear algebra routines
   SCALAPACK package :  Parallel linear algebra routines


----- Orbital basis set information -----
Your calculation utilizes the basis: def2-TZVP
   F. Weigend and R. Ahlrichs, Phys. Chem. Chem. Phys. 7, 3297 (2005).

----- AuxC basis set information -----
Your calculation utilizes the auxiliary basis: def2-TZVP/C
  H-La, Hf-Rn : A. Hellweg, C. Hattig, S. Hofener and W. Klopper, Theor. Chem. Acc. 117, 587 (2007).
        Ce-Lu : J. Chmela and M. E. Harding, Mol. Phys. (2018).

----- AuxJK basis set information -----
Your calculation utilizes the auxiliary basis: def2/JK
   H-Ba, Hf-Rn: F. Weigend, J. Comput. Chem. 29, 167 (2008).

================================================================================
                                        WARNINGS
                       Please study these warnings very carefully!
================================================================================


WARNING: MDCI localization with Augmented Hessian Foster-Boys
  ===> : Switching off randomization!

WARNING: Post HF methods need fully converged wavefunctions
  ===> : Setting SCFConvForced true
         You can overwrite this default with %scf ConvForced false 


INFO   : the flag for use of LIBINT has been found!

================================================================================
                                       INPUT FILE
================================================================================
NAME = hydroquinone.inp
|  1> ! STEOM-DLPNO-CCSD RIJK def2-TZVP def2/JK def2-TZVP/C verytightSCF CPCM(Water)
|  2> %maxcore 1500
|  3> %pal
|  4> nprocs 8
|  5> end
|  6> %mdci 
|  7> nroots 10
|  8> DoSOLV true
|  9> maxiter 100
| 10> end
| 11> * xyz 0 1
| 12> H  13.757000  0.173000  13.148000
| 13> C  12.680000  0.436000  13.391000
| 14> C  11.715000 -0.440000  13.849000
| 15> O  12.001000 -1.804000  14.120000
| 16> C  10.493000  0.189000  14.157000
| 17> H  9.747000 -0.437000  14.620000
| 18> C  10.285000  1.539000  14.103000
| 19> H  9.370000  2.033000  14.369000
| 20> C  11.329000  2.397000  13.705000
| 21> C  12.537000  1.795000  13.281000
| 22> H  13.324000  2.336000  12.817000
| 23> O  11.066000  3.761000  13.665000
| 24> H  11.895000  4.249000  13.270000
| 25> H  11.056000 -2.315000  14.113000
| 26> **                         ****END OF INPUT****
================================================================================

                       ****************************
                       * Single Point Calculation *
                       ****************************

---------------------------------
CARTESIAN COORDINATES (ANGSTROEM)
---------------------------------
  H     13.757000    0.173000   13.148000
  C     12.680000    0.436000   13.391000
  C     11.715000   -0.440000   13.849000
  O     12.001000   -1.804000   14.120000
  C     10.493000    0.189000   14.157000
  H      9.747000   -0.437000   14.620000
  C     10.285000    1.539000   14.103000
  H      9.370000    2.033000   14.369000
  C     11.329000    2.397000   13.705000
  C     12.537000    1.795000   13.281000
  H     13.324000    2.336000   12.817000
  O     11.066000    3.761000   13.665000
  H     11.895000    4.249000   13.270000
  H     11.056000   -2.315000   14.113000

----------------------------
CARTESIAN COORDINATES (A.U.)
----------------------------
  NO LB      ZA    FRAG     MASS         X           Y           Z
   0 H     1.0000    0     1.008   25.996962    0.326923   24.846119
   1 C     6.0000    0    12.011   23.961727    0.823921   25.305323
   2 C     6.0000    0    12.011   22.138142   -0.831479   26.170817
   3 O     8.0000    0    15.999   22.678603   -3.409066   26.682933
   4 C     6.0000    0    12.011   19.828896    0.357158   26.752853
   5 H     1.0000    0     1.008   18.419161   -0.825810   27.627796
   6 C     6.0000    0    12.011   19.435833    2.908289   26.650808
   7 H     1.0000    0     1.008   17.706734    3.841813   27.153475
   8 C     6.0000    0    12.011   21.408707    4.529674   25.898697
   9 C     6.0000    0    12.011   23.691497    3.392058   25.097453
  10 H     1.0000    0     1.008   25.178711    4.414400   24.220620
  11 O     8.0000    0    15.999   20.911709    7.107260   25.823108
  12 H     1.0000    0     1.008   22.478292    8.029446   25.076666
  13 H     1.0000    0     1.008   20.892812   -4.374716   26.669705

--------------------------------
INTERNAL COORDINATES (ANGSTROEM)
--------------------------------
 H      0   0   0     0.000000000000     0.00000000     0.00000000
 C      1   0   0     1.134965638246     0.00000000     0.00000000
 C      2   1   0     1.381435847226   125.93827451     0.00000000
 O      3   2   1     1.419765121420   122.12594657     2.50911644
 C      3   2   1     1.408470446974   113.28950143   175.66278373
 H      5   3   2     1.078313961701   115.77673025   186.49100109
 C      5   3   2     1.366996708116   124.36109271   355.80029771
 H      7   5   3     1.073320548578   125.06151668   182.32834386
 C      7   5   3     1.408724245550   119.99241788     0.69048694
 C      2   1   3     1.370923046710   108.15040264   174.01921737
 H     10   2   1     1.061765510836   117.57090387    12.28632937
 O      9   7   5     1.389699607829   117.75412756   179.92109082
 H     12   9   7     1.039908649834   108.70283471   185.33174457
 H      4   3   2     1.074334677836   106.17227037   199.69351669

---------------------------
INTERNAL COORDINATES (A.U.)
---------------------------
 H      0   0   0     0.000000000000     0.00000000     0.00000000
 C      1   0   0     2.144774227697     0.00000000     0.00000000
 C      2   1   0     2.610535422838   125.93827451     0.00000000
 O      3   2   1     2.682967253977   122.12594657     2.50911644
 C      3   2   1     2.661623412503   113.28950143   175.66278373
 H      5   3   2     2.037718073999   115.77673025   186.49100109
 C      5   3   2     2.583249404311   124.36109271   355.80029771
 H      7   5   3     2.028281890723   125.06151668   182.32834386
 C      7   5   3     2.662103022304   119.99241788     0.69048694
 C      2   1   3     2.590669108962   108.15040264   174.01921737
 H     10   2   1     2.006446033922   117.57090387    12.28632937
 O      9   7   5     2.626151667215   117.75412756   179.92109082
 H     12   9   7     1.965142552482   108.70283471   185.33174457
 H      4   3   2     2.030198317284   106.17227037   199.69351669

---------------------
BASIS SET INFORMATION
---------------------
There are 3 groups of distinct atoms

 Group   1 Type H   : 5s1p contracted to 3s1p pattern {311/1}
 Group   2 Type C   : 11s6p2d1f contracted to 5s3p2d1f pattern {62111/411/11/1}
 Group   3 Type O   : 11s6p2d1f contracted to 5s3p2d1f pattern {62111/411/11/1}

Atom   0H    basis set group =>   1
Atom   1C    basis set group =>   2
Atom   2C    basis set group =>   2
Atom   3O    basis set group =>   3
Atom   4C    basis set group =>   2
Atom   5H    basis set group =>   1
Atom   6C    basis set group =>   2
Atom   7H    basis set group =>   1
Atom   8C    basis set group =>   2
Atom   9C    basis set group =>   2
Atom  10H    basis set group =>   1
Atom  11O    basis set group =>   3
Atom  12H    basis set group =>   1
Atom  13H    basis set group =>   1
---------------------------------
AUXILIARY/C BASIS SET INFORMATION
---------------------------------
There are 3 groups of distinct atoms

 Group   1 Type H   : 4s3p2d contracted to 4s2p1d pattern {1111/21/2}
 Group   2 Type C   : 8s6p5d3f1g contracted to 8s6p4d3f1g pattern {11111111/111111/2111/111/1}
 Group   3 Type O   : 8s6p5d3f1g contracted to 8s6p4d3f1g pattern {11111111/111111/2111/111/1}

Atom   0H    basis set group =>   1
Atom   1C    basis set group =>   2
Atom   2C    basis set group =>   2
Atom   3O    basis set group =>   3
Atom   4C    basis set group =>   2
Atom   5H    basis set group =>   1
Atom   6C    basis set group =>   2
Atom   7H    basis set group =>   1
Atom   8C    basis set group =>   2
Atom   9C    basis set group =>   2
Atom  10H    basis set group =>   1
Atom  11O    basis set group =>   3
Atom  12H    basis set group =>   1
Atom  13H    basis set group =>   1
----------------------------------
AUXILIARY/JK BASIS SET INFORMATION
----------------------------------
There are 3 groups of distinct atoms

 Group   1 Type H   : 4s2p2d contracted to 2s2p2d pattern {31/11/11}
 Group   2 Type C   : 14s10p6d2f1g contracted to 10s8p5d1f1g pattern {5111111111/31111111/21111/2/1}
 Group   3 Type O   : 14s10p6d2f1g contracted to 10s8p4d2f1g pattern {5111111111/31111111/3111/11/1}

Atom   0H    basis set group =>   1
Atom   1C    basis set group =>   2
Atom   2C    basis set group =>   2
Atom   3O    basis set group =>   3
Atom   4C    basis set group =>   2
Atom   5H    basis set group =>   1
Atom   6C    basis set group =>   2
Atom   7H    basis set group =>   1
Atom   8C    basis set group =>   2
Atom   9C    basis set group =>   2
Atom  10H    basis set group =>   1
Atom  11O    basis set group =>   3
Atom  12H    basis set group =>   1
Atom  13H    basis set group =>   1


           ************************************************************
           *        Program running with 8 parallel MPI-processes     *
           *              working on a common directory               *
           ************************************************************
------------------------------------------------------------------------------
                           ORCA GTO INTEGRAL CALCULATION
                           -- RI-GTO INTEGRALS CHOSEN --
------------------------------------------------------------------------------

                         BASIS SET STATISTICS AND STARTUP INFO

Gaussian basis set:
 # of primitive gaussian shells          ...  196
 # of primitive gaussian functions       ...  416
 # of contracted shells                  ...  112
 # of contracted basis functions         ...  284
 Highest angular momentum                ...    3
 Maximum contraction depth               ...    6
Auxiliary gaussian basis set:
 # of primitive gaussian shells          ...  312
 # of primitive gaussian functions       ...  896
 # of contracted shells                  ...  236
 # of contracted aux-basis functions     ...  712
 Highest angular momentum                ...    4
 Maximum contraction depth               ...    5
Ratio of auxiliary to basis functions    ...  2.51
Integral package used                  ... LIBINT
 One Electron integrals                  ... done
 Ordering auxiliary basis shells         ... done
 Integral threshhold             Thresh  ...  1.000e-12
 Primitive cut-off               TCut    ...  1.000e-14
 Pre-screening matrix                    ... done
 Shell pair data                         ... 
 Ordering of the shell pairs             ... done (   0.001 sec) 5810 of 6328 pairs
 Determination of significant pairs      ... done (   0.000 sec)
 Creation of shell pair data             ... done (   0.000 sec)
 Storage of shell pair data              ... done (   0.009 sec)
 Shell pair data done in (   0.010 sec)
 Computing two index integrals           ... done
 Cholesky decomposition of the V-matrix  ... done


Timings:
 Total evaluation time                   ...   0.196 sec (  0.003 min)
 One electron matrix time                ...   0.029 sec (  0.000 min) = 14.8%
 Schwartz matrix evaluation time         ...   0.104 sec (  0.002 min) = 52.8%
 Two index repulsion integral time       ...   0.008 sec (  0.000 min) =  4.3%
 Cholesky decomposition of V             ...   0.027 sec (  0.000 min) = 13.8%
 Three index repulsion integral time     ...   0.000 sec (  0.000 min) =  0.0%



           ************************************************************
           *        Program running with 8 parallel MPI-processes     *
           *              working on a common directory               *
           ************************************************************
-------------------------------------------------------------------------------
                                 ORCA SCF
-------------------------------------------------------------------------------

------------
SCF SETTINGS
------------
Hamiltonian:
 Ab initio Hamiltonian  Method          .... Hartree-Fock(GTOs)
 RI-approximation to the Coulomb term is turned on
   Number of auxiliary basis functions  .... 712
   RI-JK (J+K treated both via RI)      .... on


General Settings:
 Integral files         IntName         .... hydroquinone
 Hartree-Fock type      HFTyp           .... RHF
 Total Charge           Charge          ....    0
 Multiplicity           Mult            ....    1
 Number of Electrons    NEL             ....   58
 Basis Dimension        Dim             ....  284
 Nuclear Repulsion      ENuc            ....    340.9956573403 Eh

Convergence Acceleration:
 DIIS                   CNVDIIS         .... on
   Start iteration      DIISMaxIt       ....    12
   Startup error        DIISStart       ....  0.200000
   # of expansion vecs  DIISMaxEq       ....     5
   Bias factor          DIISBfac        ....   1.050
   Max. coefficient     DIISMaxC        ....  10.000
 Newton-Raphson         CNVNR           .... off
 SOSCF                  CNVSOSCF        .... on
   Start iteration      SOSCFMaxIt      ....   150
   Startup grad/error   SOSCFStart      ....  0.003300
 Level Shifting         CNVShift        .... on
   Level shift para.    LevelShift      ....    0.2500
   Turn off err/grad.   ShiftErr        ....    0.0010
 Zerner damping         CNVZerner       .... off
 Static damping         CNVDamp         .... on
   Fraction old density DampFac         ....    0.7000
   Max. Damping (<1)    DampMax         ....    0.9800
   Min. Damping (>=0)   DampMin         ....    0.0000
   Turn off err/grad.   DampErr         ....    0.1000
 Fernandez-Rico         CNVRico         .... off

SCF Procedure:
 Maximum # iterations   MaxIter         ....   125
 SCF integral mode      SCFMode         .... Direct
   Integral package                     .... LIBINT
 Reset frequency        DirectResetFreq ....    20
 Integral Threshold     Thresh          ....  1.000e-12 Eh
 Primitive CutOff       TCut            ....  1.000e-14 Eh

Convergence Tolerance:
 Convergence Check Mode ConvCheckMode   .... Total+1el-Energy
 Convergence forced     ConvForced      .... 1
 Energy Change          TolE            ....  1.000e-09 Eh
 1-El. energy change                    ....  1.000e-06 Eh
 Orbital Gradient       TolG            ....  2.000e-06
 Orbital Rotation angle TolX            ....  2.000e-06
 DIIS Error             TolErr          ....  1.000e-08


Diagonalization of the overlap matrix:
Smallest eigenvalue                        ... 1.661e-05
Time for diagonalization                   ...    0.017 sec
Threshold for overlap eigenvalues          ... 1.000e-08
Number of eigenvalues below threshold      ... 0
Time for construction of square roots      ...    0.016 sec
Total time needed                          ...    0.034 sec

-------------------
DFT GRID GENERATION
-------------------

General Integration Accuracy     IntAcc      ...  4.340
Radial Grid Type                 RadialGrid  ... Gauss-Chebyshev
Angular Grid (max. acc.)         AngularGrid ... Lebedev-110
Angular grid pruning method      GridPruning ... 3 (G Style)
Weight generation scheme         WeightScheme... Becke
Basis function cutoff            BFCut       ...    1.0000e-12
Integration weight cutoff        WCut        ...    1.0000e-14
Grids for H and He will be reduced by one unit

# of grid points (after initial pruning)     ...  18132 (   0.0 sec)
# of grid points (after weights+screening)   ...  16955 (   0.0 sec)
nearest neighbour list constructed           ...    0.0 sec
Grid point re-assignment to atoms done       ...    0.0 sec
Grid point division into batches done        ...    0.0 sec
Reduced shell lists constructed in    0.1 sec

Total number of grid points                  ...    16955
Total number of batches                      ...      272
Average number of points per batch           ...       62
Average number of grid points per atom       ...     1211
Average number of shells per batch           ...    75.86 (67.73%)
Average number of basis functions per batch  ...   199.46 (70.23%)
Average number of large shells per batch     ...    60.97 (80.38%)
Average number of large basis fcns per batch ...   158.69 (79.56%)
Average number of aux-shells per batch       ...    75.86 (32.14%)
Average number of aux functions per batch    ...   199.46 (28.01%)
Maximum spatial batch extension              ...  15.87, 14.83, 27.16 au
Average spatial batch extension              ...   0.54,  0.51,  0.73 au

Time for grid setup =    0.075 sec

------------------------------
INITIAL GUESS: MODEL POTENTIAL
------------------------------
Loading Hartree-Fock densities                     ... done
Calculating cut-offs                               ... done
Setting up the integral package                    ... done
Initializing the effective Hamiltonian             ... done
Starting the Coulomb interaction                   ... done (   0.0 sec)
Reading the grid                                   ... done
Mapping shells                                     ... done
Starting the XC term evaluation                    ... done (   0.0 sec)
Transforming the Hamiltonian                       ... done (   0.0 sec)
Diagonalizing the Hamiltonian                      ... done (   0.0 sec)
Back transforming the eigenvectors                 ... done (   0.0 sec)
Now organizing SCF variables                       ... done
                      ------------------
                      INITIAL GUESS DONE (   0.2 sec)
                      ------------------

--------------------
CPCM SOLVATION MODEL
--------------------
CPCM parameters:
  Epsilon                                         ...      80.4000
  Refrac                                          ...       1.3300
  Rsolv                                           ...       1.3000
  Surface type                                    ...    GEPOL SES
  Epsilon function type                           ...         CPCM
Radii:
 Radius for H  used is    2.4566 Bohr (=   1.3000 Ang.)
 Radius for C  used is    3.7795 Bohr (=   2.0000 Ang.)
 Radius for O  used is    3.2503 Bohr (=   1.7200 Ang.)
Calculating surface                               ...        done! (  0.0s)
GEPOL surface points                              ...          448
GEPOL Volume                                      ...     884.9783
GEPOL Surface-area                                ...     516.0240
Calculating surface distance matrix               ...        done! (  0.0s)
Performing Cholesky decomposition & store         ...        done! (  0.0s)
Overall time for CPCM initialization              ...                 0.0s
--------------
SCF ITERATIONS
--------------
ITER       Energy         Delta-E        Max-DP      RMS-DP      [F,P]     Damp
  0   -380.2108638489   0.000000000000 0.02984751  0.00103169  0.2956986 0.7000
  1   -380.0840306872   0.126833161620 0.04898729  0.00122666  0.2492368 0.7000
                               ***Turning on DIIS***
  2   -380.1204918334  -0.036461146219 0.03927817  0.00097282  0.1832747 0.7000
  3   -381.0756009593  -0.955109125895 0.01478449  0.00049077  0.1290801 0.7000
  4   -380.5483707894   0.527230169965 0.03689051  0.00102753  0.0851627 0.0000
  5   -380.5277507618   0.020620027585 0.00808438  0.00025034  0.0235196 0.0000
  6   -380.4821770071   0.045573754694 0.00570861  0.00013344  0.0122281 0.0000
  7   -380.4879229667  -0.005745959640 0.00214327  0.00005945  0.0056419 0.0000
  8   -380.4945048097  -0.006581842979 0.00150243  0.00004649  0.0036857 0.0000
                      *** Initiating the SOSCF procedure ***
                           *** Shutting down DIIS ***
                      *** Re-Reading the Fockian *** 
                      *** Removing any level shift *** 
ITER      Energy       Delta-E        Grad      Rot      Max-DP    RMS-DP
  9   -380.53746175  -0.0429569390  0.000177  0.000177  0.000434  0.000012
 10   -380.54068312  -0.0032213671  0.000064  0.000136  0.000121  0.000004
 11   -380.54068331  -0.0000001962  0.000035  0.000149  0.000106  0.000003
 12   -380.54068339  -0.0000000780  0.000014  0.000050  0.000043  0.000001
 13   -380.54068340  -0.0000000090  0.000008  0.000046  0.000044  0.000001
 14   -380.54068340  -0.0000000034  0.000002  0.000002  0.000016  0.000000
 15   -380.54068340  -0.0000000003  0.000001  0.000001  0.000005  0.000000
                  ***Gradient check signals convergence***
              ***Rediagonalizing the Fockian in SOSCF/NRSCF***

               *****************************************************
               *                     SUCCESS                       *
               *           SCF CONVERGED AFTER  16 CYCLES          *
               *****************************************************


----------------
TOTAL SCF ENERGY
----------------

Total Energy       :         -380.54068340 Eh          -10355.03844 eV

Components:
Nuclear Repulsion  :          340.99565734 Eh            9278.96357 eV
Electronic Energy  :         -721.53634074 Eh          -19634.00200 eV
One Electron Energy:        -1195.12722242 Eh          -32521.06506 eV
Two Electron Energy:          473.59088167 Eh           12887.06306 eV
CPCM Dielectric    :           -0.02322074 Eh              -0.63187 eV

Virial components:
Potential Energy   :         -760.19198946 Eh          -20685.87568 eV
Kinetic Energy     :          379.65130605 Eh           10330.83725 eV
Virial Ratio       :            2.00234262

CPCM Solvation Model Properties:
Surface-charge          :           -0.02374576
Charge-correction       :            0.00018672 Eh               0.00508 eV
Free-energy (cav+disp)  :            0.00366273 Eh               0.09967 eV
Corrected G(solv)       :         -380.53683395 Eh          -10354.93369 eV

---------------
SCF CONVERGENCE
---------------

  Last Energy change         ...   -5.2125e-11  Tolerance :   1.0000e-09
  Last MAX-Density change    ...    1.3139e-06  Tolerance :   1.0000e-08
  Last RMS-Density change    ...    3.5787e-08  Tolerance :   1.0000e-09
  Last Orbital Gradient      ...    2.6054e-07  Tolerance :   2.0000e-06
  Last Orbital Rotation      ...    1.0427e-06  Tolerance :   2.0000e-06

             **** THE GBW FILE WAS UPDATED (hydroquinone.gbw) ****
             **** DENSITY FILE WAS UPDATED (hydroquinone.scfp) ****
             **** ENERGY FILE WAS UPDATED (hydroquinone.en.tmp) ****
             **** THE GBW FILE WAS UPDATED (hydroquinone.gbw) ****
             **** DENSITY FILE WAS UPDATED (hydroquinone.scfp) ****
----------------
ORBITAL ENERGIES
----------------

  NO   OCC          E(Eh)            E(eV) 
   0   2.0000     -20.597495      -560.4863 
   1   2.0000     -20.594511      -560.4051 
   2   2.0000     -11.304365      -307.6074 
   3   2.0000     -11.300289      -307.4965 
   4   2.0000     -11.239536      -305.8433 
   5   2.0000     -11.238468      -305.8143 
   6   2.0000     -11.233814      -305.6876 
   7   2.0000     -11.232784      -305.6596 
   8   2.0000      -1.380703       -37.5708 
   9   2.0000      -1.363484       -37.1023 
  10   2.0000      -1.150029       -31.2939 
  11   2.0000      -1.028521       -27.9875 
  12   2.0000      -0.994919       -27.0731 
  13   2.0000      -0.848545       -23.0901 
  14   2.0000      -0.818505       -22.2726 
  15   2.0000      -0.725692       -19.7471 
  16   2.0000      -0.710887       -19.3442 
  17   2.0000      -0.660064       -17.9613 
  18   2.0000      -0.624201       -16.9854 
  19   2.0000      -0.610491       -16.6123 
  20   2.0000      -0.590509       -16.0686 
  21   2.0000      -0.584438       -15.9034 
  22   2.0000      -0.576079       -15.6759 
  23   2.0000      -0.550402       -14.9772 
  24   2.0000      -0.541653       -14.7391 
  25   2.0000      -0.479211       -13.0400 
  26   2.0000      -0.472878       -12.8677 
  27   2.0000      -0.352715        -9.5979 
  28   2.0000      -0.306059        -8.3283 
  29   0.0000       0.116362         3.1664 
  30   0.0000       0.140991         3.8366 
  31   0.0000       0.149290         4.0624 
  32   0.0000       0.158190         4.3046 
  33   0.0000       0.177692         4.8353 
  34   0.0000       0.189901         5.1675 
  35   0.0000       0.223002         6.0682 
  36   0.0000       0.234738         6.3875 
  37   0.0000       0.248775         6.7695 
  38   0.0000       0.274401         7.4668 
  39   0.0000       0.311055         8.4642 
  40   0.0000       0.318408         8.6643 
  41   0.0000       0.324944         8.8422 
  42   0.0000       0.339139         9.2285 
  43   0.0000       0.344805         9.3826 
  44   0.0000       0.365614         9.9489 
  45   0.0000       0.371962        10.1216 
  46   0.0000       0.394839        10.7441 
  47   0.0000       0.400079        10.8867 
  48   0.0000       0.428535        11.6610 
  49   0.0000       0.440551        11.9880 
  50   0.0000       0.449712        12.2373 
  51   0.0000       0.462367        12.5816 
  52   0.0000       0.470631        12.8065 
  53   0.0000       0.485543        13.2123 
  54   0.0000       0.493841        13.4381 
  55   0.0000       0.512569        13.9477 
  56   0.0000       0.521979        14.2038 
  57   0.0000       0.534746        14.5512 
  58   0.0000       0.544872        14.8267 
  59   0.0000       0.561944        15.2913 
  60   0.0000       0.567988        15.4557 
  61   0.0000       0.573695        15.6110 
  62   0.0000       0.596172        16.2227 
  63   0.0000       0.602609        16.3978 
  64   0.0000       0.618933        16.8420 
  65   0.0000       0.626318        17.0430 
  66   0.0000       0.643970        17.5233 
  67   0.0000       0.654367        17.8062 
  68   0.0000       0.656496        17.8642 
  69   0.0000       0.682457        18.5706 
  70   0.0000       0.694949        18.9105 
  71   0.0000       0.716099        19.4860 
  72   0.0000       0.727752        19.8031 
  73   0.0000       0.761471        20.7207 
  74   0.0000       0.773441        21.0464 
  75   0.0000       0.796682        21.6788 
  76   0.0000       0.810249        22.0480 
  77   0.0000       0.837590        22.7920 
  78   0.0000       0.852016        23.1845 
  79   0.0000       0.871373        23.7113 
  80   0.0000       0.882657        24.0183 
  81   0.0000       0.886171        24.1139 
  82   0.0000       0.942619        25.6500 
  83   0.0000       0.986583        26.8463 
  84   0.0000       0.990155        26.9435 
  85   0.0000       1.002852        27.2890 
  86   0.0000       1.022614        27.8267 
  87   0.0000       1.028411        27.9845 
  88   0.0000       1.048413        28.5288 
  89   0.0000       1.061882        28.8953 
  90   0.0000       1.078126        29.3373 
  91   0.0000       1.086369        29.5616 
  92   0.0000       1.119392        30.4602 
  93   0.0000       1.201498        32.6944 
  94   0.0000       1.244421        33.8624 
  95   0.0000       1.256391        34.1881 
  96   0.0000       1.262179        34.3456 
  97   0.0000       1.273171        34.6448 
  98   0.0000       1.316407        35.8213 
  99   0.0000       1.350590        36.7514 
 100   0.0000       1.401692        38.1420 
 101   0.0000       1.420171        38.6448 
 102   0.0000       1.426283        38.8111 
 103   0.0000       1.440960        39.2105 
 104   0.0000       1.450668        39.4747 
 105   0.0000       1.475168        40.1414 
 106   0.0000       1.481949        40.3259 
 107   0.0000       1.502200        40.8769 
 108   0.0000       1.535246        41.7762 
 109   0.0000       1.593365        43.3577 
 110   0.0000       1.639635        44.6167 
 111   0.0000       1.644319        44.7442 
 112   0.0000       1.681173        45.7470 
 113   0.0000       1.704460        46.3807 
 114   0.0000       1.722924        46.8831 
 115   0.0000       1.740775        47.3689 
 116   0.0000       1.771883        48.2154 
 117   0.0000       1.779750        48.4295 
 118   0.0000       1.789022        48.6818 
 119   0.0000       1.816511        49.4298 
 120   0.0000       1.860773        50.6342 
 121   0.0000       1.880333        51.1665 
 122   0.0000       1.936444        52.6933 
 123   0.0000       1.950616        53.0790 
 124   0.0000       1.963418        53.4273 
 125   0.0000       1.979038        53.8524 
 126   0.0000       1.988635        54.1135 
 127   0.0000       2.007854        54.6365 
 128   0.0000       2.028346        55.1941 
 129   0.0000       2.044653        55.6378 
 130   0.0000       2.080545        56.6145 
 131   0.0000       2.099138        57.1204 
 132   0.0000       2.130849        57.9834 
 133   0.0000       2.143390        58.3246 
 134   0.0000       2.155033        58.6414 
 135   0.0000       2.169811        59.0435 
 136   0.0000       2.182038        59.3763 
 137   0.0000       2.223488        60.5042 
 138   0.0000       2.258995        61.4704 
 139   0.0000       2.276908        61.9578 
 140   0.0000       2.296737        62.4974 
 141   0.0000       2.321032        63.1585 
 142   0.0000       2.351832        63.9966 
 143   0.0000       2.391788        65.0839 
 144   0.0000       2.432168        66.1827 
 145   0.0000       2.445541        66.5465 
 146   0.0000       2.450839        66.6907 
 147   0.0000       2.459983        66.9395 
 148   0.0000       2.520269        68.5800 
 149   0.0000       2.541990        69.1711 
 150   0.0000       2.567224        69.8577 
 151   0.0000       2.592046        70.5332 
 152   0.0000       2.626562        71.4724 
 153   0.0000       2.647454        72.0409 
 154   0.0000       2.678967        72.8984 
 155   0.0000       2.708502        73.7021 
 156   0.0000       2.730951        74.3130 
 157   0.0000       2.796009        76.0833 
 158   0.0000       2.807321        76.3911 
 159   0.0000       2.880396        78.3796 
 160   0.0000       2.889087        78.6160 
 161   0.0000       2.913156        79.2710 
 162   0.0000       2.918578        79.4185 
 163   0.0000       2.935565        79.8808 
 164   0.0000       2.941452        80.0410 
 165   0.0000       2.976662        80.9991 
 166   0.0000       2.989118        81.3380 
 167   0.0000       3.002816        81.7108 
 168   0.0000       3.033248        82.5389 
 169   0.0000       3.041533        82.7643 
 170   0.0000       3.050015        82.9951 
 171   0.0000       3.073021        83.6212 
 172   0.0000       3.095490        84.2326 
 173   0.0000       3.118152        84.8492 
 174   0.0000       3.136994        85.3620 
 175   0.0000       3.161283        86.0229 
 176   0.0000       3.180739        86.5523 
 177   0.0000       3.199799        87.0710 
 178   0.0000       3.215896        87.5090 
 179   0.0000       3.231634        87.9372 
 180   0.0000       3.244745        88.2940 
 181   0.0000       3.267219        88.9055 
 182   0.0000       3.270371        88.9913 
 183   0.0000       3.290013        89.5258 
 184   0.0000       3.319721        90.3342 
 185   0.0000       3.360984        91.4570 
 186   0.0000       3.386790        92.1592 
 187   0.0000       3.405591        92.6708 
 188   0.0000       3.434106        93.4468 
 189   0.0000       3.443517        93.7029 
 190   0.0000       3.463916        94.2580 
 191   0.0000       3.482285        94.7578 
 192   0.0000       3.494379        95.0869 
 193   0.0000       3.504654        95.3665 
 194   0.0000       3.525430        95.9318 
 195   0.0000       3.546368        96.5016 
 196   0.0000       3.556957        96.7897 
 197   0.0000       3.583926        97.5236 
 198   0.0000       3.622445        98.5717 
 199   0.0000       3.645195        99.1908 
 200   0.0000       3.670545        99.8806 
 201   0.0000       3.682881       100.2163 
 202   0.0000       3.688677       100.3740 
 203   0.0000       3.694431       100.5306 
 204   0.0000       3.718464       101.1845 
 205   0.0000       3.742294       101.8330 
 206   0.0000       3.785219       103.0011 
 207   0.0000       3.798247       103.3556 
 208   0.0000       3.806160       103.5709 
 209   0.0000       3.839739       104.4846 
 210   0.0000       3.851199       104.7965 
 211   0.0000       3.879515       105.5670 
 212   0.0000       3.899387       106.1077 
 213   0.0000       3.936345       107.1134 
 214   0.0000       3.955523       107.6353 
 215   0.0000       3.989193       108.5515 
 216   0.0000       4.072816       110.8270 
 217   0.0000       4.117561       112.0445 
 218   0.0000       4.177996       113.6891 
 219   0.0000       4.182998       113.8252 
 220   0.0000       4.226227       115.0015 
 221   0.0000       4.232403       115.1695 
 222   0.0000       4.307006       117.1996 
 223   0.0000       4.342723       118.1715 
 224   0.0000       4.402864       119.8080 
 225   0.0000       4.442234       120.8793 
 226   0.0000       4.475634       121.7882 
 227   0.0000       4.499513       122.4380 
 228   0.0000       4.508800       122.6907 
 229   0.0000       4.538843       123.5082 
 230   0.0000       4.594614       125.0258 
 231   0.0000       4.614227       125.5595 
 232   0.0000       4.634500       126.1112 
 233   0.0000       4.657052       126.7248 
 234   0.0000       4.713573       128.2628 
 235   0.0000       4.741872       129.0329 
 236   0.0000       4.788263       130.2953 
 237   0.0000       4.903926       133.4426 
 238   0.0000       4.928687       134.1164 
 239   0.0000       4.971435       135.2796 
 240   0.0000       5.050881       137.4415 
 241   0.0000       5.108685       139.0144 
 242   0.0000       5.155704       140.2938 
 243   0.0000       5.235073       142.4536 
 244   0.0000       5.260797       143.1536 
 245   0.0000       5.281460       143.7158 
 246   0.0000       5.345422       145.4563 
 247   0.0000       5.464903       148.7076 
 248   0.0000       5.511827       149.9844 
 249   0.0000       5.622286       152.9902 
 250   0.0000       5.687779       154.7723 
 251   0.0000       5.713966       155.4849 
 252   0.0000       5.739483       156.1793 
 253   0.0000       5.805886       157.9862 
 254   0.0000       5.829022       158.6157 
 255   0.0000       5.867407       159.6603 
 256   0.0000       5.902542       160.6163 
 257   0.0000       5.955211       162.0495 
 258   0.0000       6.143693       167.1784 
 259   0.0000       6.216914       169.1708 
 260   0.0000       6.261864       170.3940 
 261   0.0000       6.334170       172.3615 
 262   0.0000       6.582273       179.1128 
 263   0.0000       6.612584       179.9376 
 264   0.0000       6.710215       182.5942 
 265   0.0000       6.798597       184.9992 
 266   0.0000       6.924346       188.4210 
 267   0.0000       7.001560       190.5221 
 268   0.0000       7.183989       195.4863 
 269   0.0000       7.213896       196.3001 
 270   0.0000       7.253238       197.3707 
 271   0.0000       7.267916       197.7700 
 272   0.0000       7.470918       203.2940 
 273   0.0000       7.497830       204.0263 
 274   0.0000       7.624641       207.4770 
 275   0.0000       7.713077       209.8835 
 276   0.0000      23.138434       629.6288 
 277   0.0000      23.714378       645.3010 
 278   0.0000      23.801127       647.6616 
 279   0.0000      23.861656       649.3087 
 280   0.0000      23.910301       650.6324 
 281   0.0000      24.299454       661.2218 
 282   0.0000      45.450609      1236.7739 
 283   0.0000      45.531762      1238.9822 

                    ********************************
                    * MULLIKEN POPULATION ANALYSIS *
                    ********************************

-----------------------
MULLIKEN ATOMIC CHARGES
-----------------------
   0 H :    0.159819
   1 C :   -0.186709
   2 C :    0.229076
   3 O :   -0.582853
   4 C :   -0.138495
   5 H :    0.160431
   6 C :   -0.266904
   7 H :    0.160732
   8 C :    0.319907
   9 C :   -0.271364
  10 H :    0.170259
  11 O :   -0.572981
  12 H :    0.407908
  13 H :    0.411174
Sum of atomic charges:    0.0000000

--------------------------------
MULLIKEN REDUCED ORBITAL CHARGES
--------------------------------
  0 H s       :     0.818848  s :     0.818848
      pz      :     0.004078  p :     0.021333
      px      :     0.014105
      py      :     0.003150
  1 C s       :     3.150551  s :     3.150551
      pz      :     0.987972  p :     2.924342
      px      :     0.962092
      py      :     0.974279
      dz2     :     0.009044  d :     0.102337
      dxz     :     0.009906
      dyz     :     0.022692
      dx2y2   :     0.027569
      dxy     :     0.033126
      f0      :     0.001318  f :     0.009479
      f+1     :     0.001173
      f-1     :     0.001167
      f+2     :     0.001275
      f-2     :     0.000889
      f+3     :     0.002166
      f-3     :     0.001491
  2 C s       :     3.025811  s :     3.025811
      pz      :     0.921034  p :     2.551712
      px      :     0.904819
      py      :     0.725859
      dz2     :     0.013357  d :     0.178345
      dxz     :     0.019193
      dyz     :     0.042651
      dx2y2   :     0.036256
      dxy     :     0.066887
      f0      :     0.001734  f :     0.015056
      f+1     :     0.001517
      f-1     :     0.002047
      f+2     :     0.002105
      f-2     :     0.001499
      f+3     :     0.003562
      f-3     :     0.002592
  3 O s       :     3.808574  s :     3.808574
      pz      :     1.882146  p :     4.740620
      px      :     1.542437
      py      :     1.316036
      dz2     :     0.004708  d :     0.032151
      dxz     :     0.001584
      dyz     :     0.004288
      dx2y2   :     0.011588
      dxy     :     0.009982
      f0      :     0.000196  f :     0.001509
      f+1     :     0.000240
      f-1     :     0.000349
      f+2     :     0.000127
      f-2     :     0.000050
      f+3     :     0.000123
      f-3     :     0.000423
  4 C s       :     3.123827  s :     3.123827
      pz      :     0.976543  p :     2.907124
      px      :     0.968881
      py      :     0.961700
      dz2     :     0.005999  d :     0.098723
      dxz     :     0.013987
      dyz     :     0.024804
      dx2y2   :     0.029391
      dxy     :     0.024542
      f0      :     0.001451  f :     0.008821
      f+1     :     0.000973
      f-1     :     0.000710
      f+2     :     0.001142
      f-2     :     0.001078
      f+3     :     0.001835
      f-3     :     0.001631
  5 H s       :     0.816132  s :     0.816132
      pz      :     0.006619  p :     0.023437
      px      :     0.009470
      py      :     0.007348
  6 C s       :     3.213589  s :     3.213589
      pz      :     1.032354  p :     2.947660
      px      :     0.976423
      py      :     0.938883
      dz2     :     0.006417  d :     0.096753
      dxz     :     0.009908
      dyz     :     0.021554
      dx2y2   :     0.022365
      dxy     :     0.036509
      f0      :     0.001432  f :     0.008901
      f+1     :     0.001052
      f-1     :     0.001007
      f+2     :     0.001017
      f-2     :     0.000869
      f+3     :     0.001652
      f-3     :     0.001872
  7 H s       :     0.815570  s :     0.815570
      pz      :     0.005088  p :     0.023698
      px      :     0.012626
      py      :     0.005983
  8 C s       :     2.985317  s :     2.985317
      pz      :     0.901220  p :     2.500612
      px      :     0.924764
      py      :     0.674627
      dz2     :     0.010606  d :     0.178213
      dxz     :     0.019103
      dyz     :     0.047077
      dx2y2   :     0.035521
      dxy     :     0.065906
      f0      :     0.001993  f :     0.015951
      f+1     :     0.001632
      f-1     :     0.001549
      f+2     :     0.002354
      f-2     :     0.001446
      f+3     :     0.004129
      f-3     :     0.002847
  9 C s       :     3.197062  s :     3.197062
      pz      :     0.996869  p :     2.968933
      px      :     1.007396
      py      :     0.964668
      dz2     :     0.006652  d :     0.096758
      dxz     :     0.013269
      dyz     :     0.021178
      dx2y2   :     0.028710
      dxy     :     0.026949
      f0      :     0.001295  f :     0.008611
      f+1     :     0.001088
      f-1     :     0.000704
      f+2     :     0.001243
      f-2     :     0.001046
      f+3     :     0.001618
      f-3     :     0.001616
 10 H s       :     0.805778  s :     0.805778
      pz      :     0.006970  p :     0.023963
      px      :     0.010713
      py      :     0.006280
 11 O s       :     3.791072  s :     3.791072
      pz      :     1.820499  p :     4.746739
      px      :     1.606828
      py      :     1.319411
      dz2     :     0.003713  d :     0.033483
      dxz     :     0.004298
      dyz     :     0.004479
      dx2y2   :     0.011096
      dxy     :     0.009896
      f0      :     0.000293  f :     0.001687
      f+1     :     0.000090
      f-1     :     0.000326
      f+2     :     0.000168
      f-2     :     0.000198
      f+3     :     0.000179
      f-3     :     0.000433
 12 H s       :     0.554562  s :     0.554562
      pz      :     0.012184  p :     0.037530
      px      :     0.015132
      py      :     0.010215
 13 H s       :     0.553388  s :     0.553388
      pz      :     0.009707  p :     0.035438
      px      :     0.015979
      py      :     0.009752


                     *******************************
                     * LOEWDIN POPULATION ANALYSIS *
                     *******************************

----------------------
LOEWDIN ATOMIC CHARGES
----------------------
   0 H :    0.166358
   1 C :   -0.140352
   2 C :   -0.238188
   3 O :   -0.090371
   4 C :   -0.129471
   5 H :    0.151740
   6 C :   -0.131858
   7 H :    0.151099
   8 C :   -0.230375
   9 C :   -0.144993
  10 H :    0.147503
  11 O :   -0.046924
  12 H :    0.258849
  13 H :    0.276984

-------------------------------
LOEWDIN REDUCED ORBITAL CHARGES
-------------------------------
  0 H s       :     0.781084  s :     0.781084
      pz      :     0.011611  p :     0.052559
      px      :     0.031850
      py      :     0.009097
  1 C s       :     2.756461  s :     2.756461
      pz      :     0.903087  p :     2.928316
      px      :     0.968941
      py      :     1.056288
      dz2     :     0.035212  d :     0.410909
      dxz     :     0.032064
      dyz     :     0.087719
      dx2y2   :     0.132842
      dxy     :     0.123072
      f0      :     0.003739  f :     0.044666
      f+1     :     0.003458
      f-1     :     0.004376
      f+2     :     0.006779
      f-2     :     0.004908
      f+3     :     0.012777
      f-3     :     0.008629
  2 C s       :     2.716295  s :     2.716295
      pz      :     0.897320  p :     2.783175
      px      :     1.055939
      py      :     0.829915
      dz2     :     0.063021  d :     0.651767
      dxz     :     0.076829
      dyz     :     0.134143
      dx2y2   :     0.190498
      dxy     :     0.187276
      f0      :     0.007102  f :     0.086951
      f+1     :     0.004862
      f-1     :     0.010426
      f+2     :     0.014351
      f-2     :     0.009182
      f+3     :     0.025439
      f-3     :     0.015589
  3 O s       :     3.412722  s :     3.412722
      pz      :     1.785045  p :     4.614882
      px      :     1.489280
      py      :     1.340556
      dz2     :     0.007636  d :     0.059359
      dxz     :     0.001400
      dyz     :     0.011631
      dx2y2   :     0.017254
      dxy     :     0.021438
      f0      :     0.000295  f :     0.003408
      f+1     :     0.000227
      f-1     :     0.000589
      f+2     :     0.000429
      f-2     :     0.000143
      f+3     :     0.000638
      f-3     :     0.001086
  4 C s       :     2.753550  s :     2.753550
      pz      :     0.902921  p :     2.931503
      px      :     0.985226
      py      :     1.043356
      dz2     :     0.026674  d :     0.401199
      dxz     :     0.047623
      dyz     :     0.083061
      dx2y2   :     0.099616
      dxy     :     0.144225
      f0      :     0.003913  f :     0.043219
      f+1     :     0.003165
      f-1     :     0.003712
      f+2     :     0.007142
      f-2     :     0.003752
      f+3     :     0.013200
      f-3     :     0.008336
  5 H s       :     0.787877  s :     0.787877
      pz      :     0.018176  p :     0.060383
      px      :     0.023647
      py      :     0.018560
  6 C s       :     2.753142  s :     2.753142
      pz      :     0.926307  p :     2.953781
      px      :     0.981884
      py      :     1.045591
      dz2     :     0.028827  d :     0.382355
      dxz     :     0.028605
      dyz     :     0.078345
      dx2y2   :     0.105570
      dxy     :     0.141008
      f0      :     0.003596  f :     0.042580
      f+1     :     0.003026
      f-1     :     0.004215
      f+2     :     0.005704
      f-2     :     0.004779
      f+3     :     0.011595
      f-3     :     0.009663
  7 H s       :     0.786757  s :     0.786757
      pz      :     0.015498  p :     0.062144
      px      :     0.030738
      py      :     0.015908
  8 C s       :     2.723123  s :     2.723123
      pz      :     0.868394  p :     2.745628
      px      :     1.047925
      py      :     0.829309
      dz2     :     0.061650  d :     0.670187
      dxz     :     0.074807
      dyz     :     0.139136
      dx2y2   :     0.199306
      dxy     :     0.195289
      f0      :     0.007927  f :     0.091438
      f+1     :     0.004894
      f-1     :     0.009493
      f+2     :     0.015424
      f-2     :     0.008225
      f+3     :     0.028533
      f-3     :     0.016944
  9 C s       :     2.755027  s :     2.755027
      pz      :     0.935925  p :     2.960168
      px      :     0.982242
      py      :     1.042001
      dz2     :     0.027319  d :     0.387337
      dxz     :     0.044471
      dyz     :     0.076973
      dx2y2   :     0.098834
      dxy     :     0.139740
      f0      :     0.003937  f :     0.042462
      f+1     :     0.003161
      f-1     :     0.003830
      f+2     :     0.007597
      f-2     :     0.003500
      f+3     :     0.012495
      f-3     :     0.007942
 10 H s       :     0.788438  s :     0.788438
      pz      :     0.019719  p :     0.064059
      px      :     0.027311
      py      :     0.017029
 11 O s       :     3.374635  s :     3.374635
      pz      :     1.718033  p :     4.604272
      px      :     1.538838
      py      :     1.347402
      dz2     :     0.005869  d :     0.064172
      dxz     :     0.004449
      dyz     :     0.013604
      dx2y2   :     0.017750
      dxy     :     0.022500
      f0      :     0.000450  f :     0.003844
      f+1     :     0.000076
      f-1     :     0.000525
      f+2     :     0.000559
      f-2     :     0.000332
      f+3     :     0.000788
      f-3     :     0.001114
 12 H s       :     0.614859  s :     0.614859
      pz      :     0.037678  p :     0.126292
      px      :     0.060760
      py      :     0.027854
 13 H s       :     0.607847  s :     0.607847
      pz      :     0.026767  p :     0.115170
      px      :     0.062772
      py      :     0.025631


                      *****************************
                      * MAYER POPULATION ANALYSIS *
                      *****************************

  NA   - Mulliken gross atomic population
  ZA   - Total nuclear charge
  QA   - Mulliken gross atomic charge
  VA   - Mayer's total valence
  BVA  - Mayer's bonded valence
  FA   - Mayer's free valence

  ATOM       NA         ZA         QA         VA         BVA        FA
  0 H      0.8402     1.0000     0.1598     0.9638     0.9638     0.0000
  1 C      6.1867     6.0000    -0.1867     3.8939     3.8939     0.0000
  2 C      5.7709     6.0000     0.2291     3.9394     3.9394     0.0000
  3 O      8.5829     8.0000    -0.5829     1.8405     1.8405    -0.0000
  4 C      6.1385     6.0000    -0.1385     3.8383     3.8383     0.0000
  5 H      0.8396     1.0000     0.1604     0.9649     0.9649     0.0000
  6 C      6.2669     6.0000    -0.2669     3.9478     3.9478    -0.0000
  7 H      0.8393     1.0000     0.1607     0.9773     0.9773     0.0000
  8 C      5.6801     6.0000     0.3199     3.9147     3.9147     0.0000
  9 C      6.2714     6.0000    -0.2714     3.9327     3.9327     0.0000
 10 H      0.8297     1.0000     0.1703     0.9657     0.9657     0.0000
 11 O      8.5730     8.0000    -0.5730     1.8630     1.8630    -0.0000
 12 H      0.5921     1.0000     0.4079     0.8401     0.8401    -0.0000
 13 H      0.5888     1.0000     0.4112     0.8347     0.8347    -0.0000

  Mayer bond orders larger than 0.100000
B(  0-H ,  1-C ) :   0.9688 B(  1-C ,  2-C ) :   1.4403 B(  1-C ,  9-C ) :   1.4330 
B(  2-C ,  3-O ) :   0.9873 B(  2-C ,  4-C ) :   1.3974 B(  3-O , 13-H ) :   0.8205 
B(  4-C ,  5-H ) :   0.9705 B(  4-C ,  6-C ) :   1.4467 B(  6-C ,  7-H ) :   0.9759 
B(  6-C ,  8-C ) :   1.4113 B(  8-C ,  9-C ) :   1.4179 B(  8-C , 11-O ) :   1.0326 
B(  9-C , 10-H ) :   0.9711 B( 11-O , 12-H ) :   0.8248 

-------
TIMINGS
-------

Total SCF time: 0 days 0 hours 0 min 11 sec 

Total time                  ....      11.098 sec
Sum of individual times     ....      10.922 sec  ( 98.4%)

Fock matrix formation       ....      10.151 sec  ( 91.5%)
Diagonalization             ....       0.262 sec  (  2.4%)
Density matrix formation    ....       0.010 sec  (  0.1%)
Population analysis         ....       0.018 sec  (  0.2%)
Initial guess               ....       0.148 sec  (  1.3%)
Orbital Transformation      ....       0.000 sec  (  0.0%)
Orbital Orthonormalization  ....       0.000 sec  (  0.0%)
DIIS solution               ....       0.095 sec  (  0.9%)
SOSCF solution              ....       0.162 sec  (  1.5%)


           ************************************************************
           *        Program running with 8 parallel MPI-processes     *
           *              working on a common directory               *
           ************************************************************


------------------------------------------------------------------------------- 
                              ORCA-MATRIX DRIVEN CI                            
------------------------------------------------------------------------------- 


Wavefunction type
-----------------
Correlation treatment                      ...      CCSD     
Single excitations                         ... ON
Orbital optimization                       ... OFF
Calculation of Z vector                    ... OFF
Calculation of Brueckner orbitals          ... OFF
Perturbative triple excitations            ... OFF
Calculation of F12 correction              ... OFF
Frozen core treatment                      ... chemical core (16 el)
Reference Wavefunction                     ... RHF
  Internal Orbitals:     8 ...   28 ( 21 MO's/ 42 electrons)
  Virtual  Orbitals:    29 ...  283 (255 MO's              )
Number of AO's                             ...    284
Number of electrons                        ...     58
Number of correlated electrons             ...     42

Algorithmic settings
--------------------
Integral transformation                    ... All integrals via the RI transformation
K(C) Formation                             ... RI-DLPNO
   PNO-Integral Storage                    ... ON DISK
   PNO occupation number cut-off           ... 3.330e-07
   Singles PNO occupation number cut-off   ... 9.990e-09
   PNO Mulliken prescreening cut-off       ... 1.000e-03
   Domain cut-off (Mulliken population)    ... 1.000e-03
   PNO Normalization                       ...    1
Maximum number of iterations               ...       100
Convergence tolerance (max. residuum)      ... 1.000e-06
Level shift for amplitude update           ... 2.000e-01
Maximum number of DIIS vectors             ...         7
DIIS turned on at iteration                ...         0
Damping before turning on DIIS             ...     0.500
Damping after turning on DIIS              ...     0.000
Pair specific amplitude update             ... OFF
Natural orbital iterations                 ... OFF
Perturbative natural orbital generation    ... OFF
Printlevel                                 ... 2

Singles Fock matrix elements calculated using PNOs.

Memory handling:
----------------
Maximum memory for working arrays          ...   1500 MB
Data storage in matrix containers          ... UNCOMPRESSED
Data type for integral storage             ... DOUBLE
In-Core Storage of quantities:
   Amplitudes+Sigma Vector      ... NO
   J+K operators                ... NO
   DIIS vectors                 ... NO
   3-external integrals         ... NO
   4-external integrals         ... NO

Localization treatment:
-----------------------
Localization option                        ...    6
Localization threshhold                    ... -1.0e+00
Using relative localization threshhold     ... 1.0e-08
Neglect threshold for strong pairs         ... 1.000e-04 Eh
Prescreening threshold for very weak pairs ... 1.000e-06 Eh

Initializing the integral package          ... done
Localizing the valence orbitals
------------------------------------------------------------------------------
                           ORCA ORBITAL LOCALIZATION
------------------------------------------------------------------------------

Input orbitals are from                  ... hydroquinone.gbw
Output orbitals are to                   ... hydroquinone.loc
Max. number of iterations                ... 128
Localizations seeded randomly            ... off
Convergence tolerance                    ... 2.000e-07
Using relative localization threshhold   ... 1.000e-08
Treshold for strong local MOs            ... 9.500e-01
Treshold for bond MOs                    ... 8.500e-01
Operator                                 ... 0
Orbital range for localization           ... 8 to 28
Localization criterion                   ... FOSTER-BOYS (AUGMENTED HESSIAN)
Doing the dipole integrals     ... o.k.
Initial value of the localization sum : 24578.953932
ITERATION   0 : L=24606.4906830634 DL=  2.75e+01 (AVERGE_DL)=    0.3621151580 
ITERATION   1 : L=24610.3300709189 DL=  3.84e+00 (AVERGE_DL)=    0.1352139021 
ITERATION   2 : L=24610.6482199487 DL=  3.18e-01 (AVERGE_DL)=    0.0389229416 
ITERATION   3 : L=24610.8609200640 DL=  2.13e-01 (AVERGE_DL)=    0.0318254252 
ITERATION   4 : L=24610.9892684292 DL=  1.28e-01 (AVERGE_DL)=    0.0247221094 
ITERATION   5 : L=24611.0417388899 DL=  5.25e-02 (AVERGE_DL)=    0.0158069395 
ITERATION   6 : L=24611.0588923766 DL=  1.72e-02 (AVERGE_DL)=    0.0090378797 
ITERATION   7 : L=24611.0639386688 DL=  5.05e-03 (AVERGE_DL)=    0.0049020366 
ITERATION   8 : L=24611.0653512013 DL=  1.41e-03 (AVERGE_DL)=    0.0025935198 
ITERATION   9 : L=24611.0657379702 DL=  3.87e-04 (AVERGE_DL)=    0.0013571133 
ITERATION  10 : L=24611.0658430719 DL=  1.05e-04 (AVERGE_DL)=    0.0007074491 
ITERATION  11 : L=24611.0658716084 DL=  2.85e-05 (AVERGE_DL)=    0.0003686300 
ITERATION  12 : L=24611.0658793687 DL=  7.76e-06 (AVERGE_DL)=    0.0001922338 
ITERATION  13 : L=24611.0658814867 DL=  2.12e-06 (AVERGE_DL)=    0.0001004290 
ITERATION  14 : L=24611.0658820642 DL=  5.77e-07 (AVERGE_DL)=    0.0000524382 
LOCALIZATION SUM CONVERGED

------------------------------------------------------
AUGMENTED HESSIAN OPTIMIZATION OF FOSTER-BOYS ORBITALS
------------------------------------------------------

Spin operator:           0
Orbital window:          8 to 28
Number of iterations:    128
Gradient tolerance:      2.000e-07
Number of pairs:         210
Davidson threshold:      2000
Diagonalization method:  LAPACK
Iter:    0   L: 24611.0658820642   Grad. norm: 2.887183e-03
   *** Likely close to a maximum now. ***
       Augmented Hessian eigenvalues:  4.54e-07 -9.49e-01 -1.29e+00 -2.17e+00 ... 
Iter:    1   L: 24611.0658822911   Grad. norm: 5.168378e-07
Iter:    2   L: 24611.0658822911   Grad. norm: 1.776031e-13
LOCALIZATION HAS CONVERGED.

Eigenvalues of the Hessian:
  0 -9.485e-01
  1 -1.290e+00
  2 -2.175e+00
  3 -2.884e+00
  4 -3.323e+00
  5 -3.577e+00
  6 -3.657e+00
  7 -5.098e+00
  8 -5.276e+00
  9 -5.354e+00
    ...


------------------------------------------------------------------------------- 
                    LOCALIZED MOLECULAR ORBITAL COMPOSITIONS                   
------------------------------------------------------------------------------- 

The Mulliken populations for each LMO on each atom are computed
The LMO`s will be ordered according to atom index and type
  (A) Strongly localized MO`s have populations of >=0.950 on one atom
  (B) Two center bond orbitals have populations of >=0.850 on two atoms
  (C) Other MO`s are considered to be `delocalized`

FOUND  -   4 strongly local MO`s
       -  17 two center bond MO`s
       -   0 significantly delocalized MO`s

Rather strongly localized orbitals:
MO  11:  11O  -   0.975982
MO  10:  11O  -   0.974894
MO   9:   3O  -   0.983153
MO   8:   3O  -   0.979805
Bond-like localized orbitals:
MO  28:  13H  -   0.302224  and   3O  -   0.704306
MO  27:  12H  -   0.303286  and  11O  -   0.703772
MO  26:  11O  -   0.667792  and   8C  -   0.356173
MO  25:  10H  -   0.422521  and   9C  -   0.600424
MO  24:   9C  -   0.478100  and   8C  -   0.453256
MO  23:   9C  -   0.548581  and   8C  -   0.390579
MO  22:   9C  -   0.492120  and   1C  -   0.526063
MO  21:   8C  -   0.538226  and   6C  -   0.497162
MO  20:   7H  -   0.424690  and   6C  -   0.603269
MO  19:   6C  -   0.483681  and   4C  -   0.449296
MO  18:   6C  -   0.504277  and   4C  -   0.438346
MO  17:   5H  -   0.429694  and   4C  -   0.595275
MO  16:   4C  -   0.533210  and   2C  -   0.509999
MO  15:   3O  -   0.656993  and   2C  -   0.372286
MO  14:   2C  -   0.463184  and   1C  -   0.475235
MO  13:   2C  -   0.490138  and   1C  -   0.442578
MO  12:   1C  -   0.595531  and   0H  -   0.430434
Localized MO's were stored in: hydroquinone.loc

Localizing the core orbitals
------------------------------------------------------------------------------
                           ORCA ORBITAL LOCALIZATION
------------------------------------------------------------------------------

Input orbitals are from                  ... hydroquinone.loc
Output orbitals are to                   ... hydroquinone.loc
Max. number of iterations                ... 128
Localizations seeded randomly            ... off
Convergence tolerance                    ... 2.000e-07
Using relative localization threshhold   ... 1.000e-08
Treshold for strong local MOs            ... 9.500e-01
Treshold for bond MOs                    ... 8.500e-01
Operator                                 ... 0
Orbital range for localization           ... 0 to 7
Localization criterion                   ... FOSTER-BOYS (AUGMENTED HESSIAN)
Doing the dipole integrals     ... o.k.
Initial value of the localization sum :  9341.231314
ITERATION   0 : L= 9341.2313180914 DL=  3.74e-06 (AVERGE_DL)=    0.0003654926 
ITERATION   1 : L= 9341.2313180914 DL=  0.00e+00 (AVERGE_DL)=    0.0000000000 
LOCALIZATION SUM CONVERGED

------------------------------------------------------
AUGMENTED HESSIAN OPTIMIZATION OF FOSTER-BOYS ORBITALS
------------------------------------------------------

Spin operator:           0
Orbital window:          0 to 7
Number of iterations:    128
Gradient tolerance:      2.000e-07
Number of pairs:         28
Davidson threshold:      2000
Diagonalization method:  LAPACK
Iter:    0   L: 9341.2313180914   Grad. norm: 1.950484e-06
   *** Likely close to a maximum now. ***
       Augmented Hessian eigenvalues:  3.44e-14 -2.67e+01 -2.68e+01 -2.73e+01 ... 
Iter:    1   L: 9341.2313180914   Grad. norm: 1.760966e-19
LOCALIZATION HAS CONVERGED.

Eigenvalues of the Hessian:
  0 -2.669e+01
  1 -2.685e+01
  2 -2.726e+01
  3 -2.758e+01
  4 -2.834e+01
  5 -2.835e+01
  6 -2.859e+01
  7 -2.878e+01
  8 -7.757e+01
  9 -8.198e+01
    ...


------------------------------------------------------------------------------- 
                    LOCALIZED MOLECULAR ORBITAL COMPOSITIONS                   
------------------------------------------------------------------------------- 

The Mulliken populations for each LMO on each atom are computed
The LMO`s will be ordered according to atom index and type
  (A) Strongly localized MO`s have populations of >=0.950 on one atom
  (B) Two center bond orbitals have populations of >=0.850 on two atoms
  (C) Other MO`s are considered to be `delocalized`

FOUND  -   8 strongly local MO`s
       -   0 two center bond MO`s
       -   0 significantly delocalized MO`s

Rather strongly localized orbitals:
MO   7:  11O  -   0.999611
MO   6:   9C  -   1.002059
MO   5:   8C  -   1.002249
MO   4:   6C  -   1.002020
MO   3:   4C  -   1.001715
MO   2:   3O  -   0.999636
MO   1:   2C  -   1.002972
MO   0:   1C  -   1.001564
Localized MO's were stored in: hydroquinone.loc

Warning: reference  - re-canonicalizations have been set to INT 1 VIRT 1
Warning: internal orbitals are localized - no re-canonicalization of internal orbitals
Warning: UsePNO is turned on - no re-canonicalization of internal and virtual orbitals

--------------------------
CLOSED-SHELL FOCK OPERATOR
--------------------------

MDCI_FockCPCM: ediel   =  -0.023220740000
MDCI_FockCPCM: <VCPCM> =  -0.161728151421
RI-JK section for the Fock operator:
  RHF full Fock operator         ... done
  RHF frozen core Fock operator  ... done
Time needed for Fock operator              ...            0.828 sec
Reference energy                           ...   -380.540683379

--------------
DLPNO SETTINGS (2015 fully linear scaling implementation)
--------------

TCutMKN:           1.000e-03
TCutPAO:           1.000e-03
TCutPNO:           3.330e-07
TCutPNOSingles:    9.990e-09
TCutEN:            9.700e-01
TCutPAOExt:        1.000e-01
TCutPairs:         1.000e-04
TCutPre:           1.000e-06
TCutOSV:           1.000e-06
TCutDOij:          1.000e-05
TCutDO:            1.000e-02
TCutC:             1.000e-04
TCutCPAO:          1.000e-03
TCutCMO:           1.000e-03
TScaleDOMP2PreScr: 2.000e+00
TScaleMKNMP2PreScr:1.000e+01
TScalePNOMP2PreScr:1.000e+00
PAO overlap thresh 1.000e-08
Using PNOs for Singles Fock computation
Use new domains
Use fully linear algorithm

--------------------------
Calculating differential overlap integrals ... ok
--------------------------
ELECTRON PAIR PRESCREENING
--------------------------

Dipole-based pair screening          .... used

   TCutDOij = 1.000000e-05
   TCutPre  = 1.000000e-06
   .... Finished loop over pairs
Total time spent in the prescreening                  ...     0.000 sec
sum of pair energies estimated for screened out pairs ...       0.000000000000 Eh
Thresholds for map construction and integral transformation for crude MP2:
   TCutMKN                    ...     1.0e-02
   TCutDO                     ...     2.0e-02
   TCutPairs                  ...     1.0e-04
   TCutPNO_CrudeMP2           ...     3.3e-07
   TCutPNOSingles_CrudeMP2    ...     1.0e-08
--------------------------------
LOCAL RI TRANSFORMATION (IAVPAO)
--------------------------------

Orbital window:       8 to 28
Number of PAOs:     284
Basis functions:    284 (112 shells)
Aux. functions:     698 (218 shells)

Processing maps (0.0 sec)
Average map sizes:
   Aux shells -> MOs              21.0
   Aux shells -> PAOs            284.0
   MOs        -> AO shells       110.7
   PAOs       -> AO shells       112.0

Calculating integrals (0.2 sec, 31.768 MB)
Sorting integrals (0.0 sec, 31.760 MB)
Total time for the integral transformation: 0.3 sec
--------------------------------
INITIAL GUESS AND PNO GENERATION
--------------------------------

PNO truncation parameters                   .... 
    PAOOverlapThresh   =        1.000e-08

    TCutPairs          =        1.000e-04
    TCutPNO            =        3.330e-07
    TCutPNOSingles     =        9.990e-09
    TCutMP2Pairs       =        1.000e-05
    TCutMKN            =        1.000e-02
    TCutDO             =        2.000e-02

Pair selection                          .... not used
Type of local MP2 treatment                 .... semi-local MP2
Strategy for PNO selection                  .... occupation number selection
Pair density normalization                  .... MP2 norm
Spin component scaling                      .... not used

   .... Finished loop over pairs
Making pair pair interaction lists          ... done

                       ===========================
                        193 OF  231 PAIRS ARE KEPT CCSD PAIRS
                         30 OF  231 PAIRS ARE KEPT MP2 PAIRS
                          8 OF  231 PAIRS ARE SKIPPED
                       ===========================

Total time spent in the initial guess                 ...     2.290 sec
SL-MP2 correlation energy (all non-screened pairs)    ...      -1.348744570164 Eh

Initial PNO correlation energy                        ...      -1.343803155209 Eh
sum of pair energies prescreened and skipped MP2 pairs...      -0.000053541091 Eh
sum of pair energies of crude MP2 skipped pairs only  ...      -0.000053541091 Eh
sum of MP2 pair energies for pairs that were not kept ...      -0.001233506026 Eh
sum of PNO error estimates for the kept pairs         ...      -0.003707908928 Eh
                                                          --------------------
sum of all corrections                                         -0.004941414955
Initial total correlation energy                               -1.348744570164
Thresholds for map construction and integral transformation for fine MP2 and CCSD(T) calculation:
   TCutMKN   ...     1.0e-03
   TCutDO    ...     1.0e-02
   TCutPairs ...     1.0e-04
   TCutCMO   ...     1.0e-03
   TCutCPAO  ...     1.0e-03

--------------------------------
LOCAL RI TRANSFORMATION (IAVPAO)
--------------------------------

Orbital window:       8 to 28
Number of PAOs:     284
Basis functions:    284 (112 shells)
Aux. functions:     698 (218 shells)

Processing maps (0.0 sec)
Average map sizes:
   Aux shells -> MOs              21.0
   Aux shells -> PAOs            284.0
   MOs        -> AO shells       110.7
   PAOs       -> AO shells       112.0

Calculating integrals (0.2 sec, 31.768 MB)
Sorting integrals (0.0 sec, 31.760 MB)
Total time for the integral transformation: 0.3 sec
--------------------------------
INITIAL GUESS AND PNO GENERATION
--------------------------------

PNO truncation parameters                   .... 
    PAOOverlapThresh   =        1.000e-08

    TCutPairs          =        1.000e-04
    TCutPNO            =        3.330e-07
    TCutPNOSingles     =        9.990e-09
    TCutMP2Pairs       =        1.000e-05
    TCutMKN            =        1.000e-03
    TCutDO             =        1.000e-02

Pair selection                          .... not used
Type of local MP2 treatment                 .... semi-local MP2
Strategy for PNO selection                  .... occupation number selection
Pair density normalization                  .... MP2 norm
Spin component scaling                      .... not used

   .... Finished loop over pairs

 PNO Occupation Number Statistics: 
  | Av. % of trace(Dij) retained        ...  98.071163615542
  | sigma^2 in % of trace(Dij) retained ...   1.23e+01
  | Av. % of trace(Di) retained         ...  99.999091813966
  | sigma^2 in % of trace(Di) retained  ...   1.33e-07
 Distributions of % trace(Dij) recovered:
  |       >= 99.9  ...    61 ( 27.4 % of all pairs)
  |   [60.0, 70.0) ...     1 (  0.4 % of all pairs)
  |   [70.0, 80.0) ...     2 (  0.9 % of all pairs)
  |   [80.0, 90.0) ...     3 (  1.3 % of all pairs)
  |   [90.0, 99.0) ...    79 ( 35.4 % of all pairs)
  |   [99.0, 99.9) ...    77 ( 34.5 % of all pairs)
 Distributions of % trace(Di) recovered :
  |       >= 99.9  ...    21 (100.0 % of all I-pairs )

Making pair pair interaction lists          ... done

                       ===========================
                        193 OF  223 PAIRS ARE KEPT
                       ===========================

Total time spent in the initial guess                 ...     3.021 sec
SL-MP2 correlation energy (all non-screened pairs)    ...      -1.349270989693 Eh

Initial PNO correlation energy                        ...      -1.344352956433 Eh
sum of pair energies estimated for screened out pairs ...      -0.000053541091 Eh
sum of MP2 pair energies for pairs that were not kept ...      -0.001178763154 Eh
sum of PNO error estimates for the kept pairs         ...      -0.003739270105 Eh
                                                          --------------------
sum of all corrections                                         -0.004971574350
Initial total correlation energy                               -1.349324530784
Thresholds for map construction and integral transformation for fine MP2 and CCSD(T) calculation:
   TCutMKN   ...     1.0e-03
   TCutDO    ...     1.0e-02
   TCutPairs ...     1.0e-04
   TCutCMO   ...     1.0e-03
   TCutCPAO  ...     1.0e-03

Time for aux screen maps:            0.001
Time for maps after fine MP2:            0.003
-----------------------------
LOCAL RI TRANSFORMATION (IJV)
-----------------------------

Orbital window:       8 to 28
Basis functions:    284 (112 shells)
Aux. functions:     698 (218 shells)

Processing maps (0.0 sec)
Average map sizes:
   Aux shells -> MOs(i)           21.0
   Aux shells -> MOs(j)           21.0
   MOs        -> AO shells       110.7

Calculating integrals (0.2 sec, 2.356 MB)
Sorting integrals (0.0 sec, 2.349 MB)
Total time for the integral transformation: 0.2 sec
--------------------------------
LOCAL RI TRANSFORMATION (VABPAO)
--------------------------------

Number of PAOs:     284
Basis functions:    284 (112 shells)
Aux. functions:     698 (218 shells)

Processing maps (0.0 sec)
Average map sizes:
   Aux shells -> PAOs            284.0
   PAOs       -> AO shells       112.0

Calculating integrals (1.1 sec, 802.440 MB)
Finished


-------------------------------------
Pair Pair Term precalculation with     
RI-(ij|mn) and (im|jn) transformation  
ON THE FLY                             
-------------------------------------

   IBatch   1 (of   5)              ... done (    6.141 sec)
   IBatch   2 (of   5)              ... done (   11.161 sec)
   IBatch   3 (of   5)              ... done (   12.912 sec)
   IBatch   4 (of   5)              ... done (   12.556 sec)
   IBatch   5 (of   5)              ... done (   10.133 sec)
Total EXT                           ...          52.904 sec

---------------------
RI-PNO TRANSFORMATION
---------------------

Total Number of PNOs                   ...  7081
Average number of PNOs per pair        ...    36
Maximal number of PNOs per pair        ...    77
   #pairs with  1 -  5 PNOs   :    0
   #pairs with  6 - 10 PNOs   :    0
   #pairs with 11 - 15 PNOs   :   15
   #pairs with 16 - 20 PNOs   :   21
   #pairs with 21 - 25 PNOs   :   17
   #pairs with 26 - 30 PNOs   :   15
   #pairs with 31 - 35 PNOs   :   36
   #pairs with 36 - 40 PNOs   :   21
   #pairs with 41 - 45 PNOs   :   26
   #pairs with 46 - 50 PNOs   :    9
   #pairs with 51 - 55 PNOs   :    4
   #pairs with 56 - 60 PNOs   :    9
   #pairs with 61 - 65 PNOs   :    5
   #pairs with 66 - 70 PNOs   :    1
   #pairs with 71 - 75 PNOs   :   13
   #pairs with 76 - 80 PNOs   :    1

Generation of (ij|ab)[P] integrals            ... on
Generation of (ia|bc)[P],(ja|bc)[P] integrals ... on
Storage of 3 and 4 external integrals         ... on
Generation of ALL (ka|bc)[P] integrals        ... on
Keep RI integrals in memory                   ... off

Ibatch:  1 (of  1)
Starting 2-4 index PNO integral generation ... done

Timings:
Total PNO integral transformation time     ...         29.034 sec
Size of the 3-external file                ...       121 MB
Size of the 4-external file                ...       856 MB
Size of the IKJL file                      ...         0 MB
Size of the all 3-external file            ...      1270 MB
Size of the 1-external file                ...         3 MB

---------------------------------
RI-PNO TRANSFORMATION FOR SINGLES
---------------------------------

Total Number of singles PNOs                   ...  1626
Average number of PNOs per singles pair        ...    77
Maximal number of singles PNOs per pair        ...   127
   #pairs with  1 -  5 PNOs   :    0
   #pairs with  6 - 10 PNOs   :    0
   #pairs with 11 - 15 PNOs   :    0
   #pairs with 16 - 20 PNOs   :    0
   #pairs with 21 - 25 PNOs   :    0
   #pairs with 26 - 30 PNOs   :    0
   #pairs with 31 - 35 PNOs   :    0
   #pairs with 36 - 40 PNOs   :    0
   #pairs with 41 - 45 PNOs   :    0
   #pairs with 46 - 50 PNOs   :    3
   #pairs with 51 - 55 PNOs   :    1
   #pairs with 56 - 60 PNOs   :    6
   #pairs with 66 - 70 PNOs   :    2
   #pairs with 76 - 80 PNOs   :    3
   #pairs with > 96 PNOs      :    6

Generation of (ia|bc)[P] integrals for singles ... on

Ibatch:  1 (of  1)
Starting 2-4 index PNO integral generation ... done
Making pair/pair overlap matrices          ... done (    2.354 sec)
Size of the pair overlap file              ... 291 MB
Redoing the guess amplitudes               ... done (    0.001 sec)

-------------------------
FINAL STARTUP INFORMATION
-------------------------

E(0)                                       ...   -380.540683379
E(SL-MP2)                                  ...     -1.349270990
E(SL-MP2) including corrections            ...     -1.349324531
Initial E(tot)                             ...   -381.890007910
<T|T>                                      ...      0.379444424
Number of pairs included                   ... 193
Total number of pairs                      ... 231

------------------------------------------------
                  RHF COUPLED CLUSTER ITERATIONS
------------------------------------------------

Number of PNO amplitudes to be optimized   ...       309753
Number of non-PNO amplitudes               ...     12549825
Untruncated number of regular amplitudes   ...     15020775

Iter       E(tot)           E(Corr)          Delta-E          Residual     Time
  0   -381.890071983     -1.344417030      0.004853960      0.016878165    7.93
                           *** Turning on DIIS ***
  1   -381.926683031     -1.381028077     -0.036611047      0.008917676    7.93
  2   -381.959946661     -1.414291708     -0.033263631      0.003209652    7.93
  3   -381.966789331     -1.421134377     -0.006842670      0.001823654    7.96
[...]
 19   0.001568912788   0.000198092587         0.021
 20   0.004560080828   0.000131644838         0.021
 21   0.000916740788   0.000362852841         0.021
 22   0.003140180694   0.000412385335         0.021
 23   0.004358996397   0.000186337228         0.021
 24   0.000881067313   0.000199950590         0.021
 25   0.000911164442   0.000149410438         0.021
 26   0.000400528784   0.000051316666         0.021
 27   0.000119588027   0.000014910971         0.021
 28   0.000073486210   0.000006535830         0.021

      *** CONVERGENCE OF RESIDUAL NORM REACHED ***
       --- The STEOM iterations have converged ---
Solving Root No   9 
FollowCIS is 1
Iter    Delta-E          Residual              Time
---------------------------------------------------
  0   0.309318814978   0.003472959924         0.021
  1   0.001093567205   0.000209089628         0.021
  2   0.000826368866   0.000141369578         0.020
  3   0.001311127450   0.001931081937         0.020
  4   0.001524068313   0.000173262097         0.021
  5   0.001150509980   0.001725109756         0.020
  6   0.000834064508   0.000105234317         0.020
  7   0.000214231671   0.000165467057         0.020
  8   0.001879717666   0.001468054662         0.021
  9   0.002540418432   0.000344985262         0.021
 10   0.001041887443   0.000316156030         0.020
 11   0.001558290315   0.000531902406         0.021
 12   0.001644295872   0.000539024530         0.021
 13   0.000812285751   0.000170198501         0.021
 14   0.002641898317   0.001377845553         0.021
 15   0.001867424786   0.000189214718         0.021
 16   0.000400215778   0.000130858359         0.021
 17   0.000355487196   0.000113364273         0.021
 18   0.000250892621   0.000078947542         0.021
 19   0.000373365337   0.000153784641         0.021
 20   0.003504679254   0.000814495752         0.021
 21   0.002207074825   0.000448384770         0.021
 22   0.000864626033   0.000158580872         0.021
 23   0.000654881741   0.000431561088         0.021
 24   0.001565839835   0.000158790229         0.021
 25   0.000276038137   0.000046396264         0.021
 26   0.000159005073   0.000063296581         0.021
 27   0.000205362648   0.000143190223         0.021
 28   0.000394472683   0.000296335367         0.021
 29   0.000201969648   0.000029230863         0.021
 30   0.000040279056   0.000010082173         0.021
 31   0.000037042024   0.000010669322         0.021
 32   0.000057914832   0.000007945405         0.021

      *** CONVERGENCE OF RESIDUAL NORM REACHED ***
       --- The STEOM iterations have converged ---
Solving Root No  10 
FollowCIS is 1
Iter    Delta-E          Residual              Time
---------------------------------------------------
  0   0.316558175901   0.003211444300         0.022
  1   0.002024900560   0.000308530245         0.020
  2   0.001573052361   0.000264358114         0.020
  3   0.001459299586   0.001001165143         0.020
  4   0.002040953371   0.000422356211         0.020
  5   0.001799534692   0.000988328727         0.021
  6   0.001170370841   0.000257083844         0.020
  7   0.002404668708   0.002735929307         0.020
  8   0.002022196340   0.000267997970         0.021
  9   0.001226702017   0.000425758016         0.020
 10   0.005274508462   0.001617018285         0.021
 11   0.003795553465   0.000647992050         0.021
 12   0.002945467151   0.000498299905         0.020
 13   0.006452241750   0.000648221138         0.021
 14   0.002869327180   0.000471223041         0.021
 15   0.003264221332   0.000886132161         0.021
 16   0.004590796652   0.000417133331         0.021
 17   0.001059735538   0.000149148846         0.021
 18   0.001193905810   0.000722165340         0.021
 19   0.002127168049   0.000200916907         0.021
 20   0.000500914250   0.000084739596         0.021
 21   0.000847947757   0.000317028189         0.021
 22   0.002518247243   0.000703445626         0.021
 23   0.001603675422   0.000235420258         0.021
 24   0.000751566202   0.000321575550         0.021
 25   0.001441337350   0.000415491303         0.021
 26   0.003428795889   0.000130683857         0.021
 27   0.000301122108   0.000083466817         0.021
 28   0.000348523881   0.000245391700         0.021
 29   0.000835442199   0.000199040560         0.021
 30   0.000678004445   0.000164037037         0.021
 31   0.000478182126   0.000111605661         0.021
 32   0.000283781544   0.000114563242         0.021
 33   0.002983834997   0.000188248166         0.021
 34   0.000585200775   0.000163691490         0.021
 35   0.000422761829   0.000095852682         0.021
 36   0.000610065155   0.000176900749         0.021
 37   0.000550179954   0.000095376119         0.021
 38   0.000117424038   0.000015580879         0.021
 39   0.000039067375   0.000004375468         0.021

      *** CONVERGENCE OF RESIDUAL NORM REACHED ***
       --- The STEOM iterations have converged ---

------------------
STEOM-CCSD RESULTS
------------------

IROOT=  1:  0.166423 au     4.529 eV   36525.6 cm**-1
  Amplitude    Excitation
   0.449285    27 ->  30
   0.872276    28 ->  29

Percentage Active Character     98.32

  Amplitude    Excitation in Canonical Basis
  -0.439612    27 ->  30
   0.863830    28 ->  29

IROOT=  2:  0.222944 au     6.067 eV   48930.5 cm**-1
  Amplitude    Excitation
   0.362898    27 ->  29
   0.131918    28 ->  29
  -0.901378    28 ->  30

Percentage Active Character     96.82

Warning:: the state may have not converged with respect to active space 
-------------------- Handle with Care -------------------- 

  Amplitude    Excitation in Canonical Basis
   0.360472    27 ->  29
   0.136155    28 ->  29
   0.883888    28 ->  30
  -0.127736    28 ->  32

IROOT=  3:  0.244279 au     6.647 eV   53613.0 cm**-1
  Amplitude    Excitation
   0.116941    22 ->  31
   0.180538    26 ->  31
  -0.221237    26 ->  32
   0.909683    28 ->  31
  -0.136538    28 ->  34

Percentage Active Character     96.99

Warning:: the state may have not converged with respect to active space 
-------------------- Handle with Care -------------------- 

  Amplitude    Excitation in Canonical Basis
  -0.140240    22 ->  31
   0.159402    26 ->  31
   0.214163    26 ->  32
   0.115531    28 ->  29
   0.880051    28 ->  31

IROOT=  4:  0.254720 au     6.931 eV   55904.6 cm**-1
  Amplitude    Excitation
  -0.113447    22 ->  32
   0.275105    26 ->  31
   0.126988    26 ->  32
  -0.149262    27 ->  29
  -0.107867    28 ->  30
  -0.843243    28 ->  32
   0.280581    28 ->  33
   0.153654    28 ->  35

Percentage Active Character     96.80

Warning:: the state may have not converged with respect to active space 
-------------------- Handle with Care -------------------- 

  Amplitude    Excitation in Canonical Basis
  -0.125378    22 ->  32
   0.260227    26 ->  31
  -0.107126    26 ->  32
  -0.148438    27 ->  29
   0.165884    28 ->  30
  -0.105033    28 ->  31
   0.813603    28 ->  32
  -0.262267    28 ->  33
   0.189197    28 ->  35

IROOT=  5:  0.265405 au     7.222 eV   58249.7 cm**-1
  Amplitude    Excitation
   0.864144    27 ->  29
   0.391167    28 ->  30
  -0.161996    28 ->  32
   0.130316    28 ->  33

Percentage Active Character     95.38

Warning:: the state may have not converged with respect to active space 
-------------------- Handle with Care -------------------- 

  Amplitude    Excitation in Canonical Basis
   0.854361    27 ->  29
  -0.372850    28 ->  30
   0.184990    28 ->  32
  -0.126565    28 ->  33

IROOT=  6:  0.276028 au     7.511 eV   60581.1 cm**-1
  Amplitude    Excitation
  -0.328660    28 ->  32
  -0.838945    28 ->  33
   0.387484    28 ->  34

Percentage Active Character     98.38

  Amplitude    Excitation in Canonical Basis
   0.316958    28 ->  32
   0.875516    28 ->  33
   0.158372    28 ->  34
  -0.108066    28 ->  35
   0.114349    28 ->  43

IROOT=  7:  0.276114 au     7.513 eV   60600.0 cm**-1
  Amplitude    Excitation
   0.363099    28 ->  32
   0.832402    28 ->  33
  -0.380979    28 ->  34

Percentage Active Character     98.38

  Amplitude    Excitation in Canonical Basis
  -0.349062    28 ->  32
  -0.868722    28 ->  33
  -0.153033    28 ->  34
  -0.116923    28 ->  43

IROOT=  8:  0.306336 au     8.336 eV   67233.0 cm**-1
  Amplitude    Excitation
   0.175403    26 ->  30
  -0.167019    27 ->  31
  -0.120217    28 ->  31
  -0.405151    28 ->  33
  -0.833624    28 ->  34

Percentage Active Character     97.45

Warning:: the state may have not converged with respect to active space 
-------------------- Handle with Care -------------------- 

  Amplitude    Excitation in Canonical Basis
  -0.175906    26 ->  30
   0.102726    26 ->  35
  -0.171953    27 ->  31
  -0.102203    28 ->  31
   0.196402    28 ->  33
  -0.886642    28 ->  34

IROOT=  9:  0.311106 au     8.466 eV   68279.9 cm**-1
  Amplitude    Excitation
   0.115980    26 ->  31
   0.108796    26 ->  33
   0.110297    26 ->  34
  -0.325707    27 ->  31
  -0.342328    27 ->  32
  -0.523607    27 ->  33
   0.244176    27 ->  34
  -0.597232    28 ->  35
  -0.124404    28 ->  37

Percentage Active Character     96.42

Warning:: the state may have not converged with respect to active space 
-------------------- Handle with Care -------------------- 

  Amplitude    Excitation in Canonical Basis
   0.111931    26 ->  31
   0.128890    26 ->  34
  -0.338003    27 ->  31
   0.310166    27 ->  32
   0.552033    27 ->  33
  -0.107766    28 ->  33
  -0.542556    28 ->  35
  -0.150551    28 ->  36
  -0.201748    28 ->  37

IROOT= 10:  0.314016 au     8.545 eV   68918.5 cm**-1
  Amplitude    Excitation
  -0.251474    26 ->  30
  -0.622735    27 ->  31
  -0.119669    27 ->  32
  -0.401485    27 ->  33
   0.152944    27 ->  34
   0.263102    28 ->  34
   0.469339    28 ->  35

Percentage Active Character     97.15

Warning:: the state may have not converged with respect to active space 
-------------------- Handle with Care -------------------- 

  Amplitude    Excitation in Canonical Basis
   0.252656    26 ->  30
  -0.100759    26 ->  32
  -0.615271    27 ->  31
   0.403677    27 ->  33
  -0.107502    27 ->  35
   0.267889    28 ->  34
   0.398859    28 ->  35
   0.101686    28 ->  36
   0.207838    28 ->  37



-------------------
CPCM SOLVENT SHIFT
-------------------

Reading the CPCM data                  ... done
Making difference densities            ... done
Computing the potentials               ... done
Calculating charges                    ... done

---------------------------------
     CALCULATED SOLVENT SHIFTS   
            CPCM  MODEL          
---------------------------------

Contributions of the 'fast' term to the solvent shift

 State Shift(Eh) Shift(eV) Shift(cm**-1) Shift(nm) Esteom(eV)  Esteom+SHIFT(eV)
-------------------------------------------------------------------------------
   0: -0.0006493 -0.018     -142.5        1.1      4.529          4.511
   1: -0.0003800 -0.010      -83.4        0.3      6.067          6.056
   2: -0.0107865 -0.294    -2367.4        8.6      6.647          6.354
   3: -0.0097246 -0.265    -2134.3        7.1      6.931          6.667
   4: -0.0001814 -0.005      -39.8        0.1      7.222          7.217
   5: -0.0080803 -0.220    -1773.4        5.0      7.511          7.291
   6: -0.0084106 -0.229    -1845.9        5.2      7.513          7.285
   7: -0.0077831 -0.212    -1708.2        3.9      8.336          8.124
   8: -0.0029067 -0.079     -637.9        1.4      8.466          8.387
   9: -0.0035951 -0.098     -789.0        1.7      8.545          8.447

WARNING: fewer states than desired (NRoots)!
Calculating the Dipole integrals                  ... done
Transforming integrals                            ... done
-----------------------------------------------------------------------------
         ABSORPTION SPECTRUM VIA TRANSITION ELECTRIC DIPOLE MOMENTS
-----------------------------------------------------------------------------
State   Energy  Wavelength   fosc         T2         TX        TY        TZ  
        (cm-1)    (nm)                  (au**2)     (au)      (au)      (au) 
-----------------------------------------------------------------------------
   1   36383.1    274.9   0.050725182   0.45899   0.64397   0.00791   0.21012
   2   48847.1    204.7   0.203314630   1.37027   0.24710   1.14365   0.03388
   3   51245.7    195.1   0.004896531   0.03146   0.16124   0.03853   0.05864
   4   53770.3    186.0   0.012501335   0.07654   0.06690   0.26176   0.05799
   5   58209.9    171.8   1.001310332   5.66302   0.10434   2.37453   0.11701
   6   58807.7    170.0   0.009274993   0.05192   0.10872   0.19892   0.02115
   7   58754.1    170.2   0.004692308   0.02629   0.09997   0.12553   0.02105
   8   65524.8    152.6   0.002334207   0.01173   0.05940   0.05376   0.06270
   9   67641.9    147.8   0.009244807   0.04499   0.15501   0.14057   0.03282
  10   68129.4    146.8   0.007540776   0.03644   0.16696   0.06671   0.05824

 STEOM-CCSD done in (   46.5)


------------------------------------------------------------------------------- 
                                     TIMINGS                                   
------------------------------------------------------------------------------- 


Total execution time                   ...      430.132 sec

Localization of occupied MO's          ...        0.281 sec (  0.1%)
Fock Matrix Formation                  ...        0.828 sec (  0.2%)
Global overlap, Fock, MKN matrices     ...        0.078 sec (  0.0%)
Differential overlap integrals         ...        0.066 sec (  0.0%)
Organizing maps                        ...        0.008 sec (  0.0%)
RI 3-index integral generations        ...        1.856 sec (  0.4%)
RI-PNO integral transformation         ...       95.654 sec ( 22.2%)
Initial Guess                          ...        5.376 sec (  1.2%)
DIIS Solver                            ...        0.188 sec (  0.0%)
State Vector Update                    ...        0.011 sec (  0.0%)
Sigma-vector construction              ...      111.092 sec ( 25.8%)
  <D|H|D>(0-ext)                       ...        3.778 sec (  3.4% of sigma)
  <D|H|D>(2-ext Fock)                  ...        0.020 sec (  0.0% of sigma)
  <D|H|D>(2-ext)                       ...       19.918 sec ( 17.9% of sigma)
  <D|H|D>(4-ext)                       ...        7.293 sec (  6.6% of sigma)
  <D|H|D>(4-ext-corr)                  ...       47.064 sec ( 42.4% of sigma)
  CCSD doubles correction              ...        0.098 sec (  0.1% of sigma)
  <S|H|S>                              ...        0.230 sec (  0.2% of sigma)
  <S|H|D>(1-ext)                       ...        0.420 sec (  0.4% of sigma)
  <D|H|S>(1-ext)                       ...        0.006 sec (  0.0% of sigma)
  <S|H|D>(3-ext)                       ...        0.159 sec (  0.1% of sigma)
  Fock-dressing                        ...        9.873 sec (  8.9% of sigma)
  Singles amplitudes                   ...        0.389 sec (  0.4% of sigma)
  (ik|jl)-dressing                     ...        3.391 sec (  3.1% of sigma)
  (ij|ab),(ia|jb)-dressing             ...        3.449 sec (  3.1% of sigma)
  Pair energies                        ...        0.005 sec (  0.0% of sigma)
Total Time for computing EOM-CCSD      ...      155.596 sec ( 36.2% of ALL)
  Dressing integrals                   ...        3.392 sec (  2.2% of (EOM))
  EOM Singles                          ...        1.523 sec (  1.0% of (EOM))
  EOM Doubles                          ...      143.698 sec ( 92.4% of (EOM))
  Build Hamiltonian                    ...        0.615 sec (  0.4% of (EOM))
  Diagonalize Hamiltonian              ...        0.062 sec (  0.0% of (EOM))
  Ritz vectors                         ...        1.423 sec (  0.9% of (EOM))
  Residual vectors                     ...        1.572 sec (  1.0% of (EOM))
One-particle density matrix            ...        0.187 sec (  0.0%)


-------------------------   --------------------
FINAL SINGLE POINT ENERGY      -381.803943092348
-------------------------   --------------------


                            ***************************************
                            *     ORCA property calculations      *
                            ***************************************

                                    ---------------------
                                    Active property flags
                                    ---------------------
   (+) Dipole Moment


------------------------------------------------------------------------------
                       ORCA ELECTRIC PROPERTIES CALCULATION
------------------------------------------------------------------------------

Dipole Moment Calculation                       ... on
Quadrupole Moment Calculation                   ... off
Polarizability Calculation                      ... off
GBWName                                         ... hydroquinone.gbw
Electron density file                           ... hydroquinone.scfp
The origin for moment calculation is the CENTER OF MASS  = (21.760864,  1.861279 26.056282)

-------------
DIPOLE MOMENT
-------------
                                X             Y             Z
Electronic contribution:     -0.13187       0.03250       0.02924
Nuclear contribution   :      0.05390       0.12114      -0.36595
                        -----------------------------------------
Total Dipole Moment    :     -0.07797       0.15363      -0.33671
                        -----------------------------------------
Magnitude (a.u.)       :      0.37823
Magnitude (Debye)      :      0.96137



--------------------
Rotational spectrum 
--------------------
 
Rotational constants in cm-1:     0.190667     0.047461     0.038116 
Rotational constants in MHz :  5716.060008  1422.858999  1142.697947 

 Dipole components along the rotational axes: 
x,y,z [a.u.] :     0.189153    -0.056848    -0.322559 
x,y,z [Debye]:     0.480788    -0.144495    -0.819881 

 

                           *** MDCI DENSITY ***

------------------------------------------------------------------------------
                       ORCA ELECTRIC PROPERTIES CALCULATION
------------------------------------------------------------------------------

Dipole Moment Calculation                       ... on
Quadrupole Moment Calculation                   ... off
Polarizability Calculation                      ... off
GBWName                                         ... hydroquinone.gbw
Electron density file                           ... hydroquinone.mdcip
The origin for moment calculation is the CENTER OF MASS  = (21.760864,  1.861279 26.056282)

-------------
DIPOLE MOMENT
-------------
                                X             Y             Z
Electronic contribution:     -0.11368       0.03452       0.04910
Nuclear contribution   :      0.05390       0.12114      -0.36595
                        -----------------------------------------
Total Dipole Moment    :     -0.05977       0.15566      -0.31685
                        -----------------------------------------
Magnitude (a.u.)       :      0.35804
Magnitude (Debye)      :      0.91007



--------------------
Rotational spectrum 
--------------------
 
Rotational constants in cm-1:     0.190667     0.047461     0.038116 
Rotational constants in MHz :  5716.060008  1422.858999  1142.697947 

 Dipole components along the rotational axes: 
x,y,z [a.u.] :     0.187008    -0.067406    -0.297790 
x,y,z [Debye]:     0.475337    -0.171332    -0.756923 

 

Timings for individual modules:

Sum of individual times         ...      442.163 sec (=   7.369 min)
GTO integral calculation        ...        0.372 sec (=   0.006 min)   0.1 %
SCF iterations                  ...       11.246 sec (=   0.187 min)   2.5 %
MDCI module                     ...      430.545 sec (=   7.176 min)  97.4 %
                             ****ORCA TERMINATED NORMALLY****
TOTAL RUN TIME: 0 days 0 hours 7 minutes 22 seconds 457 msec
