
                                 *****************
                                 * O   R   C   A *
                                 *****************

           --- An Ab Initio, DFT and Semiempirical electronic structure package ---

                  #######################################################
                  #                        -***-                        #
                  #          Department of theory and spectroscopy      #
                  #               Directorship: Frank Neese             #
                  #        Max Planck Institute fuer Kohlenforschung    #
                  #                Kaiser Wilhelm Platz 1               #
                  #                 D-45470 Muelheim/Ruhr               #
                  #                      Germany                        #
                  #                                                     #
                  #                  All rights reserved                #
                  #                        -***-                        #
                  #######################################################


                         Program Version 4.2.1 -  RELEASE  -


 With contributions from (in alphabetic order):
   Daniel Aravena         : Magnetic Suceptibility
   Michael Atanasov       : Ab Initio Ligand Field Theory (pilot matlab implementation)
   Alexander A. Auer      : GIAO ZORA, VPT2
   Ute Becker             : Parallelization
   Giovanni Bistoni       : ED, misc. LED, open-shell LED, HFLD
   Martin Brehm           : Molecular dynamics
   Dmytro Bykov           : SCF Hessian
   Vijay G. Chilkuri      : MRCI spin determinant printing, contributions to CSF-ICE
   Dipayan Datta          : RHF DLPNO-CCSD density
   Achintya Kumar Dutta   : EOM-CC, STEOM-CC
   Dmitry Ganyushin       : Spin-Orbit,Spin-Spin,Magnetic field MRCI
   Miquel Garcia          : C-PCM Hessian, Gaussian charge scheme
   Yang Guo               : DLPNO-NEVPT2, CIM, IAO-localization
   Andreas Hansen         : Spin unrestricted coupled pair/coupled cluster methods
   Benjamin Helmich-Paris : CASSCF linear response (MC-RPA)
   Lee Huntington         : MR-EOM, pCC
   Robert Izsak           : Overlap fitted RIJCOSX, COSX-SCS-MP3, EOM
   Christian Kollmar      : KDIIS, OOCD, Brueckner-CCSD(T), CCSD density
   Simone Kossmann        : Meta GGA functionals, TD-DFT gradient, OOMP2, MP2 Hessian
   Martin Krupicka        : AUTO-CI
   Lucas Lang             : DCDCAS
   Dagmar Lenk            : GEPOL surface, SMD
   Dimitrios Liakos       : Extrapolation schemes; Compound Job, initial MDCI parallelization
   Dimitrios Manganas     : Further ROCIS development; embedding schemes
   Dimitrios Pantazis     : SARC Basis sets
   Taras Petrenko         : DFT Hessian,TD-DFT gradient, ASA, ECA, R-Raman, ABS, FL, XAS/XES, NRVS
   Peter Pinski           : DLPNO-MP2, DLPNO-MP2 Gradient
   Christoph Reimann      : Effective Core Potentials
   Marius Retegan         : Local ZFS, SOC
   Christoph Riplinger    : Optimizer, TS searches, QM/MM, DLPNO-CCSD(T), (RO)-DLPNO pert. Triples
   Tobias Risthaus        : Range-separated hybrids, TD-DFT gradient, RPA, STAB
   Michael Roemelt        : Original ROCIS implementation
   Masaaki Saitow         : Open-shell DLPNO-CCSD energy and density
   Barbara Sandhoefer     : DKH picture change effects
   Avijit Sen             : IP-ROCIS
   Kantharuban Sivalingam : CASSCF convergence, NEVPT2, FIC-MRCI
   Bernardo de Souza      : ESD, SOC TD-DFT
   Georgi Stoychev        : AutoAux, RI-MP2 NMR
   Willem Van den Heuvel  : Paramagnetic NMR
   Boris Wezisla          : Elementary symmetry handling
   Frank Wennmohs         : Technical directorship


 We gratefully acknowledge several colleagues who have allowed us to
 interface, adapt or use parts of their codes:
   Stefan Grimme, W. Hujo, H. Kruse,             : VdW corrections, initial TS optimization,
                  C. Bannwarth                     DFT functionals, gCP, sTDA/sTD-DF
   Ed Valeev, F. Pavosevic, A. Kumar             : LibInt (2-el integral package), F12 methods
   Garnet Chan, S. Sharma, J. Yang, R. Olivares  : DMRG
   Ulf Ekstrom                                   : XCFun DFT Library
   Mihaly Kallay                                 : mrcc  (arbitrary order and MRCC methods)
   Andreas Klamt, Michael Diedenhofen            : otool_cosmo (COSMO solvation model)
   Jiri Pittner, Ondrej Demel                    : Mk-CCSD
   Frank Weinhold                                : gennbo (NPA and NBO analysis)
   Christopher J. Cramer and Donald G. Truhlar   : smd solvation model
   Lars Goerigk                                  : TD-DFT with DH, B97 family of functionals
   V. Asgeirsson, H. Jonsson                     : NEB implementation
   FAccTs GmbH                                   : IRC, NEB, NEB-TS, Multilevel, MM, QM/MM, CI optimization
   S Lehtola, MJT Oliveira, MAL Marques          : LibXC Library


 Your calculation uses the libint2 library for the computation of 2-el integrals
 For citations please refer to: http://libint.valeyev.net

 Your ORCA version has been built with support for libXC version: 4.2.3
 For citations please refer to: https://tddft.org/programs/libxc/

 This ORCA versions uses:
   CBLAS   interface :  Fast vector & matrix operations
   LAPACKE interface :  Fast linear algebra routines
   SCALAPACK package :  Parallel linear algebra routines


----- Orbital basis set information -----
Your calculation utilizes the basis: def2-TZVP
   F. Weigend and R. Ahlrichs, Phys. Chem. Chem. Phys. 7, 3297 (2005).

----- AuxC basis set information -----
Your calculation utilizes the auxiliary basis: def2-TZVP/C
  H-La, Hf-Rn : A. Hellweg, C. Hattig, S. Hofener and W. Klopper, Theor. Chem. Acc. 117, 587 (2007).
        Ce-Lu : J. Chmela and M. E. Harding, Mol. Phys. (2018).

----- AuxJK basis set information -----
Your calculation utilizes the auxiliary basis: def2/JK
   H-Ba, Hf-Rn: F. Weigend, J. Comput. Chem. 29, 167 (2008).

================================================================================
                                        WARNINGS
                       Please study these warnings very carefully!
================================================================================


WARNING: MDCI localization with Augmented Hessian Foster-Boys
  ===> : Switching off randomization!

WARNING: Post HF methods need fully converged wavefunctions
  ===> : Setting SCFConvForced true
         You can overwrite this default with %scf ConvForced false 


INFO   : the flag for use of LIBINT has been found!

================================================================================
                                       INPUT FILE
================================================================================
NAME = phenol.inp
|  1> ! STEOM-DLPNO-CCSD RIJK def2-TZVP def2/JK def2-TZVP/C verytightSCF CPCM(Water)
|  2> %maxcore 1500
|  3> %pal
|  4> nprocs 8
|  5> end
|  6> %mdci 
|  7> nroots 10
|  8> DoSOLV true
|  9> maxiter 100
| 10> end
| 11> * xyz 0 1
| 12> H  6.578000  1.765000  7.451000
| 13> C  5.858000  2.598000  7.356000
| 14> C  4.475000  2.591000  7.671000
| 15> H  3.883000  1.701000  7.873000
| 16> C  3.722000  3.806000  7.685000
| 17> H  2.690000  3.832000  8.039000
| 18> C  4.404000  5.020000  7.349000
| 19> H  3.808000  5.940000  7.311000
| 20> C  5.668000  4.978000  6.739000
| 21> C  6.453000  3.792000  6.870000
| 22> H  7.464000  3.803000  6.387000
| 23> O  6.200000  6.200000  6.200000
| 24> H  7.192000  6.233000  6.501000
| 25> **                         ****END OF INPUT****
================================================================================

                       ****************************
                       * Single Point Calculation *
                       ****************************

---------------------------------
CARTESIAN COORDINATES (ANGSTROEM)
---------------------------------
  H      6.578000    1.765000    7.451000
  C      5.858000    2.598000    7.356000
  C      4.475000    2.591000    7.671000
  H      3.883000    1.701000    7.873000
  C      3.722000    3.806000    7.685000
  H      2.690000    3.832000    8.039000
  C      4.404000    5.020000    7.349000
  H      3.808000    5.940000    7.311000
  C      5.668000    4.978000    6.739000
  C      6.453000    3.792000    6.870000
  H      7.464000    3.803000    6.387000
  O      6.200000    6.200000    6.200000
  H      7.192000    6.233000    6.501000

----------------------------
CARTESIAN COORDINATES (A.U.)
----------------------------
  NO LB      ZA    FRAG     MASS         X           Y           Z
   0 H     1.0000    0     1.008   12.430619    3.335367   14.080349
   1 C     6.0000    0    12.011   11.070016    4.909508   13.900825
   2 C     6.0000    0    12.011    8.456524    4.896280   14.496089
   3 H     1.0000    0     1.008    7.337807    3.214424   14.877814
   4 C     6.0000    0    12.011    7.033561    7.192298   14.522545
   5 H     1.0000    0     1.008    5.083363    7.241431   15.191508
   6 C     6.0000    0    12.011    8.322354    9.486425   13.887597
   7 H     1.0000    0     1.008    7.196077   11.224973   13.815788
   8 C     6.0000    0    12.011   10.710968    9.407057   12.734864
   9 C     6.0000    0    12.011   12.194403    7.165841   12.982419
  10 H     1.0000    0     1.008   14.104916    7.186628   12.069681
  11 O     8.0000    0    15.999   11.716302   11.716302   11.716302
  12 H     1.0000    0     1.008   13.590910   11.778663   12.285110

--------------------------------
INTERNAL COORDINATES (ANGSTROEM)
--------------------------------
 H      0   0   0     0.000000000000     0.00000000     0.00000000
 C      1   0   0     1.105130761494     0.00000000     0.00000000
 C      2   1   0     1.418436815653   127.76469268     0.00000000
 H      3   2   1     1.087827192159   125.16151037   347.42182217
 C      3   2   1     1.429485921582   120.76933578   170.38177096
 H      5   3   2     1.091336794945   121.43617744   187.34151500
 C      5   3   2     1.432416140652   117.85625717     1.06039992
 H      7   5   3     1.096840918274   117.40579594   176.88853565
 C      7   5   3     1.404122501778   120.34190437    14.13725103
 C      2   1   3     1.419808789943   112.97167130   179.25502645
 H     10   2   1     1.120504796955   122.27079627    15.05588637
 O      9   7   5     1.437647035958   118.07149840   168.72672891
 H     12   9   7     1.037185615018   105.79329384   135.52875581

---------------------------
INTERNAL COORDINATES (A.U.)
---------------------------
 H      0   0   0     0.000000000000     0.00000000     0.00000000
 C      1   0   0     2.088394481395     0.00000000     0.00000000
 C      2   1   0     2.680457119856   127.76469268     0.00000000
 H      3   2   1     2.055695474213   125.16151037   347.42182217
 C      3   2   1     2.701336904085   120.76933578   170.38177096
 H      5   3   2     2.062327662317   121.43617744   187.34151500
 C      5   3   2     2.706874215640   117.85625717     1.06039992
 H      7   5   3     2.072728948016   117.40579594   176.88853565
 C      7   5   3     2.653406986837   120.34190437    14.13725103
 C      2   1   3     2.683049775527   112.97167130   179.25502645
 H     10   2   1     2.117447197991   122.27079627    15.05588637
 O      9   7   5     2.716759175205   118.07149840   168.72672891
 H     12   9   7     1.959996762426   105.79329384   135.52875581

---------------------
BASIS SET INFORMATION
---------------------
There are 3 groups of distinct atoms

 Group   1 Type H   : 5s1p contracted to 3s1p pattern {311/1}
 Group   2 Type C   : 11s6p2d1f contracted to 5s3p2d1f pattern {62111/411/11/1}
 Group   3 Type O   : 11s6p2d1f contracted to 5s3p2d1f pattern {62111/411/11/1}

Atom   0H    basis set group =>   1
Atom   1C    basis set group =>   2
Atom   2C    basis set group =>   2
Atom   3H    basis set group =>   1
Atom   4C    basis set group =>   2
Atom   5H    basis set group =>   1
Atom   6C    basis set group =>   2
Atom   7H    basis set group =>   1
Atom   8C    basis set group =>   2
Atom   9C    basis set group =>   2
Atom  10H    basis set group =>   1
Atom  11O    basis set group =>   3
Atom  12H    basis set group =>   1
---------------------------------
AUXILIARY/C BASIS SET INFORMATION
---------------------------------
There are 3 groups of distinct atoms

 Group   1 Type H   : 4s3p2d contracted to 4s2p1d pattern {1111/21/2}
 Group   2 Type C   : 8s6p5d3f1g contracted to 8s6p4d3f1g pattern {11111111/111111/2111/111/1}
 Group   3 Type O   : 8s6p5d3f1g contracted to 8s6p4d3f1g pattern {11111111/111111/2111/111/1}

Atom   0H    basis set group =>   1
Atom   1C    basis set group =>   2
Atom   2C    basis set group =>   2
Atom   3H    basis set group =>   1
Atom   4C    basis set group =>   2
Atom   5H    basis set group =>   1
Atom   6C    basis set group =>   2
Atom   7H    basis set group =>   1
Atom   8C    basis set group =>   2
Atom   9C    basis set group =>   2
Atom  10H    basis set group =>   1
Atom  11O    basis set group =>   3
Atom  12H    basis set group =>   1
----------------------------------
AUXILIARY/JK BASIS SET INFORMATION
----------------------------------
There are 3 groups of distinct atoms

 Group   1 Type H   : 4s2p2d contracted to 2s2p2d pattern {31/11/11}
 Group   2 Type C   : 14s10p6d2f1g contracted to 10s8p5d1f1g pattern {5111111111/31111111/21111/2/1}
 Group   3 Type O   : 14s10p6d2f1g contracted to 10s8p4d2f1g pattern {5111111111/31111111/3111/11/1}

Atom   0H    basis set group =>   1
Atom   1C    basis set group =>   2
Atom   2C    basis set group =>   2
Atom   3H    basis set group =>   1
Atom   4C    basis set group =>   2
Atom   5H    basis set group =>   1
Atom   6C    basis set group =>   2
Atom   7H    basis set group =>   1
Atom   8C    basis set group =>   2
Atom   9C    basis set group =>   2
Atom  10H    basis set group =>   1
Atom  11O    basis set group =>   3
Atom  12H    basis set group =>   1


           ************************************************************
           *        Program running with 8 parallel MPI-processes     *
           *              working on a common directory               *
           ************************************************************
------------------------------------------------------------------------------
                           ORCA GTO INTEGRAL CALCULATION
                           -- RI-GTO INTEGRALS CHOSEN --
------------------------------------------------------------------------------

                         BASIS SET STATISTICS AND STARTUP INFO

Gaussian basis set:
 # of primitive gaussian shells          ...  176
 # of primitive gaussian functions       ...  370
 # of contracted shells                  ...  101
 # of contracted basis functions         ...  253
 Highest angular momentum                ...    3
 Maximum contraction depth               ...    6
Auxiliary gaussian basis set:
 # of primitive gaussian shells          ...  279
 # of primitive gaussian functions       ...  799
 # of contracted shells                  ...  211
 # of contracted aux-basis functions     ...  635
 Highest angular momentum                ...    4
 Maximum contraction depth               ...    5
Ratio of auxiliary to basis functions    ...  2.51
Integral package used                  ... LIBINT
 One Electron integrals                  ... done
 Ordering auxiliary basis shells         ... done
 Integral threshhold             Thresh  ...  1.000e-12
 Primitive cut-off               TCut    ...  1.000e-14
 Pre-screening matrix                    ... done
 Shell pair data                         ... 
 Ordering of the shell pairs             ... done (   0.001 sec) 4859 of 5151 pairs
 Determination of significant pairs      ... done (   0.000 sec)
 Creation of shell pair data             ... done (   0.000 sec)
 Storage of shell pair data              ... done (   0.005 sec)
 Shell pair data done in (   0.006 sec)
 Computing two index integrals           ... done
 Cholesky decomposition of the V-matrix  ... done


Timings:
 Total evaluation time                   ...   0.134 sec (  0.002 min)
 One electron matrix time                ...   0.014 sec (  0.000 min) = 10.5%
 Schwartz matrix evaluation time         ...   0.065 sec (  0.001 min) = 48.5%
 Two index repulsion integral time       ...   0.005 sec (  0.000 min) =  3.7%
 Cholesky decomposition of V             ...   0.020 sec (  0.000 min) = 15.0%
 Three index repulsion integral time     ...   0.000 sec (  0.000 min) =  0.0%



           ************************************************************
           *        Program running with 8 parallel MPI-processes     *
           *              working on a common directory               *
           ************************************************************
-------------------------------------------------------------------------------
                                 ORCA SCF
-------------------------------------------------------------------------------

------------
SCF SETTINGS
------------
Hamiltonian:
 Ab initio Hamiltonian  Method          .... Hartree-Fock(GTOs)
 RI-approximation to the Coulomb term is turned on
   Number of auxiliary basis functions  .... 635
   RI-JK (J+K treated both via RI)      .... on


General Settings:
 Integral files         IntName         .... phenol
 Hartree-Fock type      HFTyp           .... RHF
 Total Charge           Charge          ....    0
 Multiplicity           Mult            ....    1
 Number of Electrons    NEL             ....   50
 Basis Dimension        Dim             ....  253
 Nuclear Repulsion      ENuc            ....    265.0035695234 Eh

Convergence Acceleration:
 DIIS                   CNVDIIS         .... on
   Start iteration      DIISMaxIt       ....    12
   Startup error        DIISStart       ....  0.200000
   # of expansion vecs  DIISMaxEq       ....     5
   Bias factor          DIISBfac        ....   1.050
   Max. coefficient     DIISMaxC        ....  10.000
 Newton-Raphson         CNVNR           .... off
 SOSCF                  CNVSOSCF        .... on
   Start iteration      SOSCFMaxIt      ....   150
   Startup grad/error   SOSCFStart      ....  0.003300
 Level Shifting         CNVShift        .... on
   Level shift para.    LevelShift      ....    0.2500
   Turn off err/grad.   ShiftErr        ....    0.0010
 Zerner damping         CNVZerner       .... off
 Static damping         CNVDamp         .... on
   Fraction old density DampFac         ....    0.7000
   Max. Damping (<1)    DampMax         ....    0.9800
   Min. Damping (>=0)   DampMin         ....    0.0000
   Turn off err/grad.   DampErr         ....    0.1000
 Fernandez-Rico         CNVRico         .... off

SCF Procedure:
 Maximum # iterations   MaxIter         ....   125
 SCF integral mode      SCFMode         .... Direct
   Integral package                     .... LIBINT
 Reset frequency        DirectResetFreq ....    20
 Integral Threshold     Thresh          ....  1.000e-12 Eh
 Primitive CutOff       TCut            ....  1.000e-14 Eh

Convergence Tolerance:
 Convergence Check Mode ConvCheckMode   .... Total+1el-Energy
 Convergence forced     ConvForced      .... 1
 Energy Change          TolE            ....  1.000e-09 Eh
 1-El. energy change                    ....  1.000e-06 Eh
 Orbital Gradient       TolG            ....  2.000e-06
 Orbital Rotation angle TolX            ....  2.000e-06
 DIIS Error             TolErr          ....  1.000e-08


Diagonalization of the overlap matrix:
Smallest eigenvalue                        ... 4.208e-05
Time for diagonalization                   ...    0.020 sec
Threshold for overlap eigenvalues          ... 1.000e-08
Number of eigenvalues below threshold      ... 0
Time for construction of square roots      ...    0.013 sec
Total time needed                          ...    0.033 sec

-------------------
DFT GRID GENERATION
-------------------

General Integration Accuracy     IntAcc      ...  4.340
Radial Grid Type                 RadialGrid  ... Gauss-Chebyshev
Angular Grid (max. acc.)         AngularGrid ... Lebedev-110
Angular grid pruning method      GridPruning ... 3 (G Style)
Weight generation scheme         WeightScheme... Becke
Basis function cutoff            BFCut       ...    1.0000e-12
Integration weight cutoff        WCut        ...    1.0000e-14
Grids for H and He will be reduced by one unit

# of grid points (after initial pruning)     ...  16416 (   0.0 sec)
# of grid points (after weights+screening)   ...  15412 (   0.0 sec)
nearest neighbour list constructed           ...    0.0 sec
Grid point re-assignment to atoms done       ...    0.0 sec
Grid point division into batches done        ...    0.0 sec
Reduced shell lists constructed in    0.1 sec

Total number of grid points                  ...    15412
Total number of batches                      ...      247
Average number of points per batch           ...       62
Average number of grid points per atom       ...     1186
Average number of shells per batch           ...    68.78 (68.10%)
Average number of basis functions per batch  ...   177.41 (70.12%)
Average number of large shells per batch     ...    55.81 (81.14%)
Average number of large basis fcns per batch ...   143.12 (80.68%)
Average number of aux-shells per batch       ...    68.78 (32.60%)
Average number of aux functions per batch    ...   177.41 (27.94%)
Maximum spatial batch extension              ...  17.71, 15.83, 16.12 au
Average spatial batch extension              ...   0.54,  0.54,  0.60 au

Time for grid setup =    0.070 sec

------------------------------
INITIAL GUESS: MODEL POTENTIAL
------------------------------
Loading Hartree-Fock densities                     ... done
Calculating cut-offs                               ... done
Setting up the integral package                    ... done
Initializing the effective Hamiltonian             ... done
Starting the Coulomb interaction                   ... done (   0.0 sec)
Reading the grid                                   ... done
Mapping shells                                     ... done
Starting the XC term evaluation                    ... done (   0.0 sec)
Transforming the Hamiltonian                       ... done (   0.0 sec)
Diagonalizing the Hamiltonian                      ... done (   0.0 sec)
Back transforming the eigenvectors                 ... done (   0.0 sec)
Now organizing SCF variables                       ... done
                      ------------------
                      INITIAL GUESS DONE (   0.2 sec)
                      ------------------

--------------------
CPCM SOLVATION MODEL
--------------------
CPCM parameters:
  Epsilon                                         ...      80.4000
  Refrac                                          ...       1.3300
  Rsolv                                           ...       1.3000
  Surface type                                    ...    GEPOL SES
  Epsilon function type                           ...         CPCM
Radii:
 Radius for H  used is    2.4566 Bohr (=   1.3000 Ang.)
 Radius for C  used is    3.7795 Bohr (=   2.0000 Ang.)
 Radius for O  used is    3.2503 Bohr (=   1.7200 Ang.)
Calculating surface                               ...        done! (  0.0s)
GEPOL surface points                              ...          407
GEPOL Volume                                      ...     828.6034
GEPOL Surface-area                                ...     483.5160
Calculating surface distance matrix               ...        done! (  0.0s)
Performing Cholesky decomposition & store         ...        done! (  0.0s)
Overall time for CPCM initialization              ...                 0.0s
--------------
SCF ITERATIONS
--------------
ITER       Energy         Delta-E        Max-DP      RMS-DP      [F,P]     Damp
  0   -305.3777921470   0.000000000000 0.02980227  0.00087937  0.2942906 0.7000
  1   -305.2899703086   0.087821838429 0.02986383  0.00103632  0.2489108 0.7000
                               ***Turning on DIIS***
  2   -305.3188343000  -0.028863991451 0.02502574  0.00081906  0.1836158 0.7000
  3   -306.1305122234  -0.811677923413 0.01505809  0.00043436  0.1295064 0.7000
  4   -305.6776137695   0.452898453957 0.03302412  0.00102453  0.0850942 0.0000
  5   -305.6403779328   0.037235836707 0.00992144  0.00021868  0.0228431 0.0000
  6   -305.5975981966   0.042779736185 0.00334208  0.00009984  0.0133622 0.0000
  7   -305.6095691712  -0.011970974619 0.00195580  0.00005647  0.0053094 0.0000
  8   -305.6102767952  -0.000707624047 0.00137315  0.00004726  0.0038735 0.0000
                      *** Initiating the SOSCF procedure ***
                           *** Shutting down DIIS ***
                      *** Re-Reading the Fockian *** 
                      *** Removing any level shift *** 
ITER      Energy       Delta-E        Grad      Rot      Max-DP    RMS-DP
  9   -305.64623193  -0.0359551339  0.000494  0.000494  0.000613  0.000021
 10   -305.65015503  -0.0039231025  0.000210  0.000473  0.000351  0.000008
 11   -305.65015601  -0.0000009802  0.000167  0.001117  0.000528  0.000016
 12   -305.65015682  -0.0000008124  0.000034  0.000069  0.000074  0.000002
 13   -305.65015686  -0.0000000346  0.000007  0.000013  0.000037  0.000001
 14   -305.65015686  -0.0000000053  0.000003  0.000013  0.000009  0.000000
 15   -305.65015686  -0.0000000005  0.000001  0.000001  0.000005  0.000000
                  ***Gradient check signals convergence***
              ***Rediagonalizing the Fockian in SOSCF/NRSCF***

               *****************************************************
               *                     SUCCESS                       *
               *           SCF CONVERGED AFTER  16 CYCLES          *
               *****************************************************


----------------
TOTAL SCF ENERGY
----------------

Total Energy       :         -305.65015686 Eh           -8317.16360 eV

Components:
Nuclear Repulsion  :          265.00356952 Eh            7211.11373 eV
Electronic Energy  :         -570.65372639 Eh          -15528.27734 eV
One Electron Energy:         -939.99842975 Eh          -25578.65767 eV
Two Electron Energy:          369.34470336 Eh           10050.38033 eV
CPCM Dielectric    :           -0.01524022 Eh              -0.41471 eV

Virial components:
Potential Energy   :         -610.15307918 Eh          -16603.10937 eV
Kinetic Energy     :          304.50292231 Eh            8285.94577 eV
Virial Ratio       :            2.00376756

CPCM Solvation Model Properties:
Surface-charge          :           -0.02499094
Charge-correction       :            0.00007906 Eh               0.00215 eV
Free-energy (cav+disp)  :            0.00356461 Eh               0.09700 eV
Corrected G(solv)       :         -305.64651319 Eh           -8317.06446 eV

---------------
SCF CONVERGENCE
---------------

  Last Energy change         ...   -3.7062e-11  Tolerance :   1.0000e-09
  Last MAX-Density change    ...    1.7325e-06  Tolerance :   1.0000e-08
  Last RMS-Density change    ...    4.8098e-08  Tolerance :   1.0000e-09
  Last Orbital Gradient      ...    2.5642e-07  Tolerance :   2.0000e-06
  Last Orbital Rotation      ...    6.7088e-07  Tolerance :   2.0000e-06

             **** THE GBW FILE WAS UPDATED (phenol.gbw) ****
             **** DENSITY FILE WAS UPDATED (phenol.scfp) ****
             **** ENERGY FILE WAS UPDATED (phenol.en.tmp) ****
             **** THE GBW FILE WAS UPDATED (phenol.gbw) ****
             **** DENSITY FILE WAS UPDATED (phenol.scfp) ****
----------------
ORBITAL ENERGIES
----------------

  NO   OCC          E(Eh)            E(eV) 
   0   2.0000     -20.592107      -560.3397 
   1   2.0000     -11.310869      -307.7844 
   2   2.0000     -11.255207      -306.2697 
   3   2.0000     -11.251743      -306.1755 
   4   2.0000     -11.247901      -306.0709 
   5   2.0000     -11.243699      -305.9566 
   6   2.0000     -11.241177      -305.8880 
   7   2.0000      -1.363018       -37.0896 
   8   2.0000      -1.135336       -30.8941 
   9   2.0000      -1.011402       -27.5217 
  10   2.0000      -0.997409       -27.1409 
  11   2.0000      -0.830011       -22.5858 
  12   2.0000      -0.814332       -22.1591 
  13   2.0000      -0.708349       -19.2752 
  14   2.0000      -0.670570       -18.2471 
  15   2.0000      -0.637091       -17.3361 
  16   2.0000      -0.619827       -16.8664 
  17   2.0000      -0.584149       -15.8955 
  18   2.0000      -0.582078       -15.8392 
  19   2.0000      -0.538995       -14.6668 
  20   2.0000      -0.509917       -13.8756 
  21   2.0000      -0.497194       -13.5293 
  22   2.0000      -0.474307       -12.9066 
  23   2.0000      -0.339960        -9.2508 
  24   2.0000      -0.325822        -8.8661 
  25   0.0000       0.103828         2.8253 
  26   0.0000       0.117864         3.2073 
  27   0.0000       0.159338         4.3358 
  28   0.0000       0.169011         4.5990 
  29   0.0000       0.188987         5.1426 
  30   0.0000       0.201867         5.4931 
  31   0.0000       0.223014         6.0685 
  32   0.0000       0.228612         6.2208 
  33   0.0000       0.249364         6.7855 
  34   0.0000       0.284977         7.7546 
  35   0.0000       0.300110         8.1664 
  36   0.0000       0.319277         8.6880 
  37   0.0000       0.326384         8.8814 
  38   0.0000       0.332939         9.0597 
  39   0.0000       0.343283         9.3412 
  40   0.0000       0.363921         9.9028 
  41   0.0000       0.374822        10.1994 
  42   0.0000       0.380804        10.3622 
  43   0.0000       0.397529        10.8173 
  44   0.0000       0.413675        11.2567 
  45   0.0000       0.416641        11.3374 
  46   0.0000       0.456995        12.4355 
  47   0.0000       0.466409        12.6916 
  48   0.0000       0.470062        12.7910 
  49   0.0000       0.477209        12.9855 
  50   0.0000       0.492151        13.3921 
  51   0.0000       0.503095        13.6899 
  52   0.0000       0.533806        14.5256 
  53   0.0000       0.546520        14.8716 
  54   0.0000       0.557537        15.1713 
  55   0.0000       0.571887        15.5618 
  56   0.0000       0.574369        15.6294 
  57   0.0000       0.581884        15.8339 
  58   0.0000       0.588741        16.0205 
  59   0.0000       0.599481        16.3127 
  60   0.0000       0.609656        16.5896 
  61   0.0000       0.642877        17.4936 
  62   0.0000       0.649638        17.6775 
  63   0.0000       0.657075        17.8799 
  64   0.0000       0.672372        18.2962 
  65   0.0000       0.685058        18.6414 
  66   0.0000       0.730104        19.8671 
  67   0.0000       0.769672        20.9438 
  68   0.0000       0.783439        21.3185 
  69   0.0000       0.806995        21.9595 
  70   0.0000       0.827468        22.5166 
  71   0.0000       0.840243        22.8642 
  72   0.0000       0.864003        23.5107 
  73   0.0000       0.893037        24.3008 
  74   0.0000       0.911441        24.8016 
  75   0.0000       0.954444        25.9717 
  76   0.0000       0.975810        26.5531 
  77   0.0000       0.980241        26.6737 
  78   0.0000       1.007200        27.4073 
  79   0.0000       1.022617        27.8268 
  80   0.0000       1.044751        28.4291 
  81   0.0000       1.060913        28.8689 
  82   0.0000       1.071236        29.1498 
  83   0.0000       1.093469        29.7548 
  84   0.0000       1.197414        32.5833 
  85   0.0000       1.205552        32.8047 
  86   0.0000       1.228705        33.4348 
  87   0.0000       1.240750        33.7625 
  88   0.0000       1.271815        34.6078 
  89   0.0000       1.286522        35.0080 
  90   0.0000       1.373779        37.3824 
  91   0.0000       1.381042        37.5801 
  92   0.0000       1.390620        37.8407 
  93   0.0000       1.410255        38.3750 
  94   0.0000       1.427780        38.8519 
  95   0.0000       1.429242        38.8916 
  96   0.0000       1.453834        39.5608 
  97   0.0000       1.476763        40.1848 
  98   0.0000       1.480265        40.2801 
  99   0.0000       1.537943        41.8496 
 100   0.0000       1.575058        42.8595 
 101   0.0000       1.594570        43.3905 
 102   0.0000       1.617603        44.0172 
 103   0.0000       1.680794        45.7367 
 104   0.0000       1.686645        45.8959 
 105   0.0000       1.708223        46.4831 
 106   0.0000       1.734677        47.2030 
 107   0.0000       1.754800        47.7505 
 108   0.0000       1.776618        48.3442 
 109   0.0000       1.784282        48.5528 
 110   0.0000       1.799802        48.9751 
 111   0.0000       1.847894        50.2838 
 112   0.0000       1.889480        51.4154 
 113   0.0000       1.944974        52.9254 
 114   0.0000       1.959588        53.3231 
 115   0.0000       1.961091        53.3640 
 116   0.0000       1.978005        53.8242 
 117   0.0000       1.996297        54.3220 
 118   0.0000       2.000507        54.4366 
 119   0.0000       2.015219        54.8369 
 120   0.0000       2.054651        55.9099 
 121   0.0000       2.099596        57.1329 
 122   0.0000       2.131438        57.9994 
 123   0.0000       2.150988        58.5314 
 124   0.0000       2.167922        58.9921 
 125   0.0000       2.220006        60.4094 
 126   0.0000       2.229998        60.6813 
 127   0.0000       2.280676        62.0603 
 128   0.0000       2.287027        62.2332 
 129   0.0000       2.309769        62.8520 
 130   0.0000       2.353382        64.0388 
 131   0.0000       2.384404        64.8829 
 132   0.0000       2.405599        65.4597 
 133   0.0000       2.434701        66.2516 
 134   0.0000       2.459838        66.9356 
 135   0.0000       2.498462        67.9866 
 136   0.0000       2.517167        68.4956 
 137   0.0000       2.530007        68.8450 
 138   0.0000       2.559976        69.6605 
 139   0.0000       2.643461        71.9322 
 140   0.0000       2.675355        72.8001 
 141   0.0000       2.705415        73.6181 
 142   0.0000       2.769889        75.3725 
 143   0.0000       2.803166        76.2780 
 144   0.0000       2.816362        76.6371 
 145   0.0000       2.825009        76.8724 
 146   0.0000       2.835699        77.1633 
 147   0.0000       2.863848        77.9293 
 148   0.0000       2.894497        78.7633 
 149   0.0000       2.904466        79.0345 
 150   0.0000       2.932481        79.7969 
 151   0.0000       2.954075        80.3845 
 152   0.0000       2.967721        80.7558 
 153   0.0000       2.990467        81.3747 
 154   0.0000       2.996857        81.5486 
 155   0.0000       3.017013        82.0971 
 156   0.0000       3.030803        82.4723 
 157   0.0000       3.050922        83.0198 
 158   0.0000       3.061445        83.3061 
 159   0.0000       3.085013        83.9475 
 160   0.0000       3.111763        84.6754 
 161   0.0000       3.119602        84.8887 
 162   0.0000       3.139177        85.4214 
 163   0.0000       3.151223        85.7491 
 164   0.0000       3.190994        86.8314 
 165   0.0000       3.195410        86.9515 
 166   0.0000       3.240518        88.1790 
 167   0.0000       3.262061        88.7652 
 168   0.0000       3.271184        89.0134 
 169   0.0000       3.332668        90.6865 
 170   0.0000       3.366546        91.6084 
 171   0.0000       3.381497        92.0152 
 172   0.0000       3.406699        92.7010 
 173   0.0000       3.417465        92.9940 
 174   0.0000       3.430225        93.3412 
 175   0.0000       3.442185        93.6666 
 176   0.0000       3.466537        94.3293 
 177   0.0000       3.480739        94.7157 
 178   0.0000       3.496184        95.1360 
 179   0.0000       3.533638        96.1552 
 180   0.0000       3.536862        96.2429 
 181   0.0000       3.558229        96.8243 
 182   0.0000       3.567373        97.0731 
 183   0.0000       3.585194        97.5581 
 184   0.0000       3.635889        98.9376 
 185   0.0000       3.654625        99.4474 
 186   0.0000       3.658076        99.5413 
 187   0.0000       3.675606       100.0183 
 188   0.0000       3.691903       100.4618 
 189   0.0000       3.715745       101.1106 
 190   0.0000       3.727708       101.4361 
 191   0.0000       3.752435       102.1089 
 192   0.0000       3.771992       102.6411 
 193   0.0000       3.796994       103.3215 
 194   0.0000       3.826073       104.1127 
 195   0.0000       3.841637       104.5363 
 196   0.0000       3.868489       105.2669 
 197   0.0000       3.918902       106.6387 
 198   0.0000       3.953984       107.5934 
 199   0.0000       4.002320       108.9087 
 200   0.0000       4.071957       110.8036 
 201   0.0000       4.094281       111.4111 
 202   0.0000       4.143222       112.7428 
 203   0.0000       4.164169       113.3128 
 204   0.0000       4.247439       115.5787 
 205   0.0000       4.308673       117.2450 
 206   0.0000       4.316399       117.4552 
 207   0.0000       4.357114       118.5631 
 208   0.0000       4.360200       118.6471 
 209   0.0000       4.387306       119.3847 
 210   0.0000       4.441864       120.8693 
 211   0.0000       4.469142       121.6115 
 212   0.0000       4.485149       122.0471 
 213   0.0000       4.512820       122.8001 
 214   0.0000       4.553498       123.9070 
 215   0.0000       4.592248       124.9614 
 216   0.0000       4.623430       125.8099 
 217   0.0000       4.647246       126.4580 
 218   0.0000       4.664784       126.9352 
 219   0.0000       4.755972       129.4166 
 220   0.0000       4.864760       132.3768 
 221   0.0000       4.904964       133.4709 
 222   0.0000       5.008755       136.2952 
 223   0.0000       5.071343       137.9983 
 224   0.0000       5.095977       138.6686 
 225   0.0000       5.121910       139.3743 
 226   0.0000       5.195720       141.3827 
 227   0.0000       5.248127       142.8088 
 228   0.0000       5.305934       144.3818 
 229   0.0000       5.414486       147.3357 
 230   0.0000       5.426598       147.6652 
 231   0.0000       5.539953       150.7498 
 232   0.0000       5.595849       152.2708 
 233   0.0000       5.714228       155.4921 
 234   0.0000       5.737941       156.1373 
 235   0.0000       5.771848       157.0600 
 236   0.0000       5.936894       161.5511 
 237   0.0000       6.137101       166.9990 
 238   0.0000       6.300960       171.4578 
 239   0.0000       6.533816       177.7942 
 240   0.0000       6.593411       179.4158 
 241   0.0000       7.021797       191.0728 
 242   0.0000       7.171464       195.1455 
 243   0.0000       7.262649       197.6267 
 244   0.0000       7.471768       203.3171 
 245   0.0000       7.597464       206.7375 
 246   0.0000      23.027685       626.6152 
 247   0.0000      23.485781       639.0806 
 248   0.0000      23.531626       640.3281 
 249   0.0000      23.616377       642.6343 
 250   0.0000      23.685278       644.5092 
 251   0.0000      24.003125       653.1582 
 252   0.0000      45.458397      1236.9859 

                    ********************************
                    * MULLIKEN POPULATION ANALYSIS *
                    ********************************

-----------------------
MULLIKEN ATOMIC CHARGES
-----------------------
   0 H :    0.179550
   1 C :   -0.149572
   2 C :   -0.185916
   3 H :    0.168093
   4 C :   -0.145613
   5 H :    0.180669
   6 C :   -0.225599
   7 H :    0.162556
   8 C :    0.250577
   9 C :   -0.230043
  10 H :    0.179179
  11 O :   -0.590944
  12 H :    0.407064
Sum of atomic charges:   -0.0000000

--------------------------------
MULLIKEN REDUCED ORBITAL CHARGES
--------------------------------
  0 H s       :     0.797678  s :     0.797678
      pz      :     0.003768  p :     0.022773
      px      :     0.008821
      py      :     0.010184
  1 C s       :     3.157622  s :     3.157622
      pz      :     0.942023  p :     2.878243
      px      :     0.932375
      py      :     1.003845
      dz2     :     0.011265  d :     0.105384
      dxz     :     0.018405
      dyz     :     0.011690
      dx2y2   :     0.029642
      dxy     :     0.034382
      f0      :     0.000996  f :     0.008323
      f+1     :     0.001206
      f-1     :     0.001172
      f+2     :     0.001164
      f-2     :     0.000573
      f+3     :     0.001582
      f-3     :     0.001630
  2 C s       :     3.154538  s :     3.154538
      pz      :     1.025076  p :     2.922635
      px      :     0.916591
      py      :     0.980968
      dz2     :     0.006074  d :     0.100500
      dxz     :     0.018235
      dyz     :     0.010409
      dx2y2   :     0.032198
      dxy     :     0.033584
      f0      :     0.001346  f :     0.008243
      f+1     :     0.001195
      f-1     :     0.000733
      f+2     :     0.000831
      f-2     :     0.000721
      f+3     :     0.001764
      f-3     :     0.001653
  3 H s       :     0.808437  s :     0.808437
      pz      :     0.004697  p :     0.023470
      px      :     0.007188
      py      :     0.011585
  4 C s       :     3.162917  s :     3.162917
      pz      :     0.927797  p :     2.871965
      px      :     1.024677
      py      :     0.919491
      dz2     :     0.005727  d :     0.102530
      dxz     :     0.009819
      dyz     :     0.023463
      dx2y2   :     0.029601
      dxy     :     0.033920
      f0      :     0.001301  f :     0.008200
      f+1     :     0.000684
      f-1     :     0.001010
      f+2     :     0.000688
      f-2     :     0.001153
      f+3     :     0.001712
      f-3     :     0.001652
  5 H s       :     0.796155  s :     0.796155
      pz      :     0.005258  p :     0.023176
      px      :     0.014972
      py      :     0.002945
  6 C s       :     3.187136  s :     3.187136
      pz      :     0.988869  p :     2.935967
      px      :     0.949140
      py      :     0.997958
      dz2     :     0.012546  d :     0.094165
      dxz     :     0.014238
      dyz     :     0.011427
      dx2y2   :     0.029296
      dxy     :     0.026658
      f0      :     0.000855  f :     0.008332
      f+1     :     0.001626
      f-1     :     0.000904
      f+2     :     0.001031
      f-2     :     0.000868
      f+3     :     0.001708
      f-3     :     0.001341
  7 H s       :     0.814462  s :     0.814462
      pz      :     0.003927  p :     0.022982
      px      :     0.007036
      py      :     0.012020
  8 C s       :     3.073879  s :     3.073879
      pz      :     0.844500  p :     2.485658
      px      :     0.906705
      py      :     0.734453
      dz2     :     0.024048  d :     0.175154
      dxz     :     0.028476
      dyz     :     0.027750
      dx2y2   :     0.053771
      dxy     :     0.041109
      f0      :     0.001309  f :     0.014733
      f+1     :     0.001624
      f-1     :     0.002042
      f+2     :     0.001716
      f-2     :     0.002336
      f+3     :     0.002161
      f-3     :     0.003545
  9 C s       :     3.187305  s :     3.187305
      pz      :     1.012017  p :     2.939177
      px      :     1.004360
      py      :     0.922799
      dz2     :     0.007413  d :     0.095381
      dxz     :     0.014484
      dyz     :     0.018813
      dx2y2   :     0.022443
      dxy     :     0.032227
      f0      :     0.001172  f :     0.008180
      f+1     :     0.000524
      f-1     :     0.001256
      f+2     :     0.001005
      f-2     :     0.001199
      f+3     :     0.001583
      f-3     :     0.001442
 10 H s       :     0.798698  s :     0.798698
      pz      :     0.006172  p :     0.022123
      px      :     0.013222
      py      :     0.002729
 11 O s       :     3.810088  s :     3.810088
      pz      :     1.789921  p :     4.747574
      px      :     1.424456
      py      :     1.533197
      dz2     :     0.003506  d :     0.031743
      dxz     :     0.004671
      dyz     :     0.006696
      dx2y2   :     0.013098
      dxy     :     0.003771
      f0      :     0.000257  f :     0.001540
      f+1     :     0.000141
      f-1     :     0.000162
      f+2     :     0.000310
      f-2     :     0.000153
      f+3     :     0.000420
      f-3     :     0.000096
 12 H s       :     0.554856  s :     0.554856
      pz      :     0.010942  p :     0.038080
      px      :     0.019061
      py      :     0.008076


                     *******************************
                     * LOEWDIN POPULATION ANALYSIS *
                     *******************************

----------------------
LOEWDIN ATOMIC CHARGES
----------------------
   0 H :    0.155283
   1 C :   -0.135832
   2 C :   -0.159205
   3 H :    0.145149
   4 C :   -0.125585
   5 H :    0.148873
   6 C :   -0.138703
   7 H :    0.149707
   8 C :   -0.210704
   9 C :   -0.143352
  10 H :    0.157005
  11 O :   -0.095503
  12 H :    0.252867

-------------------------------
LOEWDIN REDUCED ORBITAL CHARGES
-------------------------------
  0 H s       :     0.786320  s :     0.786320
      pz      :     0.011331  p :     0.058397
      px      :     0.022053
      py      :     0.025012
  1 C s       :     2.781572  s :     2.781572
      pz      :     0.895944  p :     2.934646
      px      :     1.034424
      py      :     1.004278
      dz2     :     0.040468  d :     0.380661
      dxz     :     0.064318
      dyz     :     0.036233
      dx2y2   :     0.092500
      dxy     :     0.147142
      f0      :     0.002821  f :     0.038954
      f+1     :     0.003768
      f-1     :     0.003810
      f+2     :     0.006495
      f-2     :     0.003634
      f+3     :     0.006955
      f-3     :     0.011471
  2 C s       :     2.778443  s :     2.778443
      pz      :     0.919483  p :     2.969616
      px      :     1.035590
      py      :     1.014543
      dz2     :     0.026117  d :     0.373244
      dxz     :     0.060789
      dyz     :     0.033337
      dx2y2   :     0.109303
      dxy     :     0.143698
      f0      :     0.002843  f :     0.037903
      f+1     :     0.004214
      f-1     :     0.002629
      f+2     :     0.004838
      f-2     :     0.003683
      f+3     :     0.007278
      f-3     :     0.012418
  3 H s       :     0.793988  s :     0.793988
      pz      :     0.014132  p :     0.060863
      px      :     0.018520
      py      :     0.028211
  4 C s       :     2.785841  s :     2.785841
      pz      :     0.885436  p :     2.928842
      px      :     0.992276
      py      :     1.051130
      dz2     :     0.026242  d :     0.372869
      dxz     :     0.027004
      dyz     :     0.077952
      dx2y2   :     0.142191
      dxy     :     0.099480
      f0      :     0.003136  f :     0.038032
      f+1     :     0.001943
      f-1     :     0.004363
      f+2     :     0.002370
      f-2     :     0.006807
      f+3     :     0.006979
      f-3     :     0.012434
  5 H s       :     0.790649  s :     0.790649
      pz      :     0.015129  p :     0.060479
      px      :     0.036000
      py      :     0.009349
  6 C s       :     2.778774  s :     2.778774
      pz      :     0.934481  p :     2.957695
      px      :     1.012936
      py      :     1.010277
      dz2     :     0.045187  d :     0.363871
      dxz     :     0.061243
      dyz     :     0.033699
      dx2y2   :     0.099102
      dxy     :     0.124640
      f0      :     0.002895  f :     0.038362
      f+1     :     0.004520
      f-1     :     0.003479
      f+2     :     0.005817
      f-2     :     0.004909
      f+3     :     0.006994
      f-3     :     0.009748
  7 H s       :     0.790985  s :     0.790985
      pz      :     0.012206  p :     0.059307
      px      :     0.018338
      py      :     0.028763
  8 C s       :     2.739284  s :     2.739284
      pz      :     0.857743  p :     2.752368
      px      :     1.016141
      py      :     0.878484
      dz2     :     0.075923  d :     0.636800
      dxz     :     0.092604
      dyz     :     0.122407
      dx2y2   :     0.180425
      dxy     :     0.165441
      f0      :     0.006665  f :     0.082253
      f+1     :     0.006552
      f-1     :     0.010083
      f+2     :     0.010500
      f-2     :     0.013153
      f+3     :     0.011961
      f-3     :     0.023340
  9 C s       :     2.784402  s :     2.784402
      pz      :     0.939720  p :     2.958641
      px      :     0.985063
      py      :     1.033859
      dz2     :     0.031104  d :     0.362682
      dxz     :     0.040023
      dyz     :     0.070338
      dx2y2   :     0.124109
      dxy     :     0.097108
      f0      :     0.003583  f :     0.037627
      f+1     :     0.001720
      f-1     :     0.004376
      f+2     :     0.003633
      f-2     :     0.006627
      f+3     :     0.006945
      f-3     :     0.010743
 10 H s       :     0.786234  s :     0.786234
      pz      :     0.016763  p :     0.056761
      px      :     0.031564
      py      :     0.008433
 11 O s       :     3.408300  s :     3.408300
      pz      :     1.726527  p :     4.626050
      px      :     1.365194
      py      :     1.534330
      dz2     :     0.007160  d :     0.057799
      dxz     :     0.006390
      dyz     :     0.011612
      dx2y2   :     0.022798
      dxy     :     0.009838
      f0      :     0.000317  f :     0.003354
      f+1     :     0.000173
      f-1     :     0.000422
      f+2     :     0.000756
      f-2     :     0.000386
      f+3     :     0.000864
      f-3     :     0.000436
 12 H s       :     0.617817  s :     0.617817
      pz      :     0.035061  p :     0.129316
      px      :     0.071483
      py      :     0.022773


                      *****************************
                      * MAYER POPULATION ANALYSIS *
                      *****************************

  NA   - Mulliken gross atomic population
  ZA   - Total nuclear charge
  QA   - Mulliken gross atomic charge
  VA   - Mayer's total valence
  BVA  - Mayer's bonded valence
  FA   - Mayer's free valence

  ATOM       NA         ZA         QA         VA         BVA        FA
  0 H      0.8205     1.0000     0.1795     0.9583     0.9583     0.0000
  1 C      6.1496     6.0000    -0.1496     3.9151     3.9151     0.0000
  2 C      6.1859     6.0000    -0.1859     3.8920     3.8920    -0.0000
  3 H      0.8319     1.0000     0.1681     0.9620     0.9620    -0.0000
  4 C      6.1456     6.0000    -0.1456     3.9064     3.9064    -0.0000
  5 H      0.8193     1.0000     0.1807     0.9583     0.9583    -0.0000
  6 C      6.2256     6.0000    -0.2256     3.8802     3.8802     0.0000
  7 H      0.8374     1.0000     0.1626     0.9676     0.9676     0.0000
  8 C      5.7494     6.0000     0.2506     3.8465     3.8465     0.0000
  9 C      6.2300     6.0000    -0.2300     3.9165     3.9165    -0.0000
 10 H      0.8208     1.0000     0.1792     0.9613     0.9613     0.0000
 11 O      8.5909     8.0000    -0.5909     1.8229     1.8229     0.0000
 12 H      0.5929     1.0000     0.4071     0.8395     0.8395    -0.0000

  Mayer bond orders larger than 0.100000
B(  0-H ,  1-C ) :   0.9615 B(  1-C ,  2-C ) :   1.4092 B(  1-C ,  9-C ) :   1.4571 
B(  2-C ,  3-H ) :   0.9691 B(  2-C ,  4-C ) :   1.4517 B(  4-C ,  5-H ) :   0.9655 
B(  4-C ,  6-C ) :   1.3956 B(  6-C ,  7-H ) :   0.9768 B(  6-C ,  8-C ) :   1.4201 
B(  8-C ,  9-C ) :   1.4018 B(  8-C , 11-O ) :   0.9661 B(  9-C , 10-H ) :   0.9605 
B( 11-O , 12-H ) :   0.8287 

-------
TIMINGS
-------

Total SCF time: 0 days 0 hours 0 min 8 sec 

Total time                  ....       8.774 sec
Sum of individual times     ....       8.619 sec  ( 98.2%)

Fock matrix formation       ....       7.981 sec  ( 91.0%)
Diagonalization             ....       0.195 sec  (  2.2%)
Density matrix formation    ....       0.013 sec  (  0.1%)
Population analysis         ....       0.014 sec  (  0.2%)
Initial guess               ....       0.134 sec  (  1.5%)
Orbital Transformation      ....       0.000 sec  (  0.0%)
Orbital Orthonormalization  ....       0.000 sec  (  0.0%)
DIIS solution               ....       0.075 sec  (  0.8%)
SOSCF solution              ....       0.137 sec  (  1.6%)


           ************************************************************
           *        Program running with 8 parallel MPI-processes     *
           *              working on a common directory               *
           ************************************************************


------------------------------------------------------------------------------- 
                              ORCA-MATRIX DRIVEN CI                            
------------------------------------------------------------------------------- 


Wavefunction type
-----------------
Correlation treatment                      ...      CCSD     
Single excitations                         ... ON
Orbital optimization                       ... OFF
Calculation of Z vector                    ... OFF
Calculation of Brueckner orbitals          ... OFF
Perturbative triple excitations            ... OFF
Calculation of F12 correction              ... OFF
Frozen core treatment                      ... chemical core (14 el)
Reference Wavefunction                     ... RHF
  Internal Orbitals:     7 ...   24 ( 18 MO's/ 36 electrons)
  Virtual  Orbitals:    25 ...  252 (228 MO's              )
Number of AO's                             ...    253
Number of electrons                        ...     50
Number of correlated electrons             ...     36

Algorithmic settings
--------------------
Integral transformation                    ... All integrals via the RI transformation
K(C) Formation                             ... RI-DLPNO
   PNO-Integral Storage                    ... ON DISK
   PNO occupation number cut-off           ... 3.330e-07
   Singles PNO occupation number cut-off   ... 9.990e-09
   PNO Mulliken prescreening cut-off       ... 1.000e-03
   Domain cut-off (Mulliken population)    ... 1.000e-03
   PNO Normalization                       ...    1
Maximum number of iterations               ...       100
Convergence tolerance (max. residuum)      ... 1.000e-06
Level shift for amplitude update           ... 2.000e-01
Maximum number of DIIS vectors             ...         7
DIIS turned on at iteration                ...         0
Damping before turning on DIIS             ...     0.500
Damping after turning on DIIS              ...     0.000
Pair specific amplitude update             ... OFF
Natural orbital iterations                 ... OFF
Perturbative natural orbital generation    ... OFF
Printlevel                                 ... 2

Singles Fock matrix elements calculated using PNOs.

Memory handling:
----------------
Maximum memory for working arrays          ...   1500 MB
Data storage in matrix containers          ... UNCOMPRESSED
Data type for integral storage             ... DOUBLE
In-Core Storage of quantities:
   Amplitudes+Sigma Vector      ... NO
   J+K operators                ... NO
   DIIS vectors                 ... NO
   3-external integrals         ... NO
   4-external integrals         ... NO

Localization treatment:
-----------------------
Localization option                        ...    6
Localization threshhold                    ... -1.0e+00
Using relative localization threshhold     ... 1.0e-08
Neglect threshold for strong pairs         ... 1.000e-04 Eh
Prescreening threshold for very weak pairs ... 1.000e-06 Eh

Initializing the integral package          ... done
Localizing the valence orbitals
------------------------------------------------------------------------------
                           ORCA ORBITAL LOCALIZATION
------------------------------------------------------------------------------

Input orbitals are from                  ... phenol.gbw
Output orbitals are to                   ... phenol.loc
Max. number of iterations                ... 128
Localizations seeded randomly            ... off
Convergence tolerance                    ... 2.000e-07
Using relative localization threshhold   ... 1.000e-08
Treshold for strong local MOs            ... 9.500e-01
Treshold for bond MOs                    ... 8.500e-01
Operator                                 ... 0
Orbital range for localization           ... 7 to 24
Localization criterion                   ... FOSTER-BOYS (AUGMENTED HESSIAN)
Doing the dipole integrals     ... o.k.
Initial value of the localization sum :  6358.923810
ITERATION   0 : L= 6399.5569015237 DL=  4.06e+01 (AVERGE_DL)=    0.5153404351 
ITERATION   1 : L= 6403.9458711689 DL=  4.39e+00 (AVERGE_DL)=    0.1693696434 
ITERATION   2 : L= 6404.8091556214 DL=  8.63e-01 (AVERGE_DL)=    0.0751157909 
ITERATION   3 : L= 6405.4771874789 DL=  6.68e-01 (AVERGE_DL)=    0.0660773887 
ITERATION   4 : L= 6405.7042743973 DL=  2.27e-01 (AVERGE_DL)=    0.0385256827 
ITERATION   5 : L= 6405.7617178197 DL=  5.74e-02 (AVERGE_DL)=    0.0193764601 
ITERATION   6 : L= 6405.7747206340 DL=  1.30e-02 (AVERGE_DL)=    0.0092187697 
ITERATION   7 : L= 6405.7776151621 DL=  2.89e-03 (AVERGE_DL)=    0.0043495384 
ITERATION   8 : L= 6405.7782659135 DL=  6.51e-04 (AVERGE_DL)=    0.0020623475 
ITERATION   9 : L= 6405.7784142819 DL=  1.48e-04 (AVERGE_DL)=    0.0009847475 
ITERATION  10 : L= 6405.7784485653 DL=  3.43e-05 (AVERGE_DL)=    0.0004733653 
ITERATION  11 : L= 6405.7784565778 DL=  8.01e-06 (AVERGE_DL)=    0.0002288430 
ITERATION  12 : L= 6405.7784584686 DL=  1.89e-06 (AVERGE_DL)=    0.0001111674 
ITERATION  13 : L= 6405.7784589187 DL=  4.50e-07 (AVERGE_DL)=    0.0000542394 
LOCALIZATION SUM CONVERGED

------------------------------------------------------
AUGMENTED HESSIAN OPTIMIZATION OF FOSTER-BOYS ORBITALS
------------------------------------------------------

Spin operator:           0
Orbital window:          7 to 24
Number of iterations:    128
Gradient tolerance:      2.000e-07
Number of pairs:         153
Davidson threshold:      2000
Diagonalization method:  LAPACK
Iter:    0   L: 6405.7784589187   Grad. norm: 2.393723e-03
   *** Likely close to a maximum now. ***
       Augmented Hessian eigenvalues:  2.97e-07 -1.32e+00 -2.57e+00 -3.07e+00 ... 
Iter:    1   L: 6405.7784590671   Grad. norm: 2.788171e-07
Iter:    2   L: 6405.7784590671   Grad. norm: 3.861649e-14
LOCALIZATION HAS CONVERGED.

Eigenvalues of the Hessian:
  0 -1.323e+00
  1 -2.569e+00
  2 -3.072e+00
  3 -3.325e+00
  4 -3.486e+00
  5 -5.245e+00
  6 -5.523e+00
  7 -7.659e+00
  8 -1.033e+01
  9 -1.059e+01
    ...


------------------------------------------------------------------------------- 
                    LOCALIZED MOLECULAR ORBITAL COMPOSITIONS                   
------------------------------------------------------------------------------- 

The Mulliken populations for each LMO on each atom are computed
The LMO`s will be ordered according to atom index and type
  (A) Strongly localized MO`s have populations of >=0.950 on one atom
  (B) Two center bond orbitals have populations of >=0.850 on two atoms
  (C) Other MO`s are considered to be `delocalized`

FOUND  -   2 strongly local MO`s
       -  16 two center bond MO`s
       -   0 significantly delocalized MO`s

Rather strongly localized orbitals:
MO   8:  11O  -   0.987405
MO   7:  11O  -   0.981280
Bond-like localized orbitals:
MO  24:  12H  -   0.305011  and  11O  -   0.701149
MO  23:  11O  -   0.658699  and   8C  -   0.375609
MO  22:  10H  -   0.418113  and   9C  -   0.605808
MO  21:   9C  -   0.498063  and   8C  -   0.542550
MO  20:   9C  -   0.486775  and   1C  -   0.455821
MO  19:   9C  -   0.488468  and   1C  -   0.434401
MO  18:   8C  -   0.387952  and   6C  -   0.543966
MO  17:   8C  -   0.494813  and   6C  -   0.440402
MO  16:   7H  -   0.426755  and   6C  -   0.603852
MO  15:   6C  -   0.512477  and   4C  -   0.508914
MO  14:   5H  -   0.418216  and   4C  -   0.606038
MO  13:   4C  -   0.413834  and   2C  -   0.526115
MO  12:   4C  -   0.476908  and   2C  -   0.445772
MO  11:   3H  -   0.425384  and   2C  -   0.597583
MO  10:   2C  -   0.508653  and   1C  -   0.512317
MO   9:   1C  -   0.601888  and   0H  -   0.419040
Localized MO's were stored in: phenol.loc

Localizing the core orbitals
------------------------------------------------------------------------------
                           ORCA ORBITAL LOCALIZATION
------------------------------------------------------------------------------

Input orbitals are from                  ... phenol.loc
Output orbitals are to                   ... phenol.loc
Max. number of iterations                ... 128
Localizations seeded randomly            ... off
Convergence tolerance                    ... 2.000e-07
Using relative localization threshhold   ... 1.000e-08
Treshold for strong local MOs            ... 9.500e-01
Treshold for bond MOs                    ... 8.500e-01
Operator                                 ... 0
Orbital range for localization           ... 0 to 6
Localization criterion                   ... FOSTER-BOYS (AUGMENTED HESSIAN)
Doing the dipole integrals     ... o.k.
Initial value of the localization sum :  2455.538360
ITERATION   0 : L= 2455.5383621095 DL=  2.25e-06 (AVERGE_DL)=    0.0003271493 
ITERATION   1 : L= 2455.5383621095 DL=  0.00e+00 (AVERGE_DL)=    0.0000000000 
LOCALIZATION SUM CONVERGED

------------------------------------------------------
AUGMENTED HESSIAN OPTIMIZATION OF FOSTER-BOYS ORBITALS
------------------------------------------------------

Spin operator:           0
Orbital window:          0 to 6
Number of iterations:    128
Gradient tolerance:      2.000e-07
Number of pairs:         21
Davidson threshold:      2000
Diagonalization method:  LAPACK
Iter:    0   L: 2455.5383621095   Grad. norm: 1.160007e-06
   *** Likely close to a maximum now. ***
       Augmented Hessian eigenvalues:  1.68e-14 -2.82e+01 -2.87e+01 -2.88e+01 ... 
Iter:    1   L: 2455.5383621095   Grad. norm: 7.317912e-20
LOCALIZATION HAS CONVERGED.

Eigenvalues of the Hessian:
  0 -2.816e+01
  1 -2.874e+01
  2 -2.879e+01
  3 -2.914e+01
  4 -2.919e+01
  5 -2.931e+01
  6 -2.951e+01
  7 -8.479e+01
  8 -8.482e+01
  9 -8.565e+01
    ...


------------------------------------------------------------------------------- 
                    LOCALIZED MOLECULAR ORBITAL COMPOSITIONS                   
------------------------------------------------------------------------------- 

The Mulliken populations for each LMO on each atom are computed
The LMO`s will be ordered according to atom index and type
  (A) Strongly localized MO`s have populations of >=0.950 on one atom
  (B) Two center bond orbitals have populations of >=0.850 on two atoms
  (C) Other MO`s are considered to be `delocalized`

FOUND  -   7 strongly local MO`s
       -   0 two center bond MO`s
       -   0 significantly delocalized MO`s

Rather strongly localized orbitals:
MO   6:  11O  -   0.999695
MO   5:   9C  -   1.001426
MO   4:   8C  -   1.001440
MO   3:   6C  -   1.001358
MO   2:   4C  -   1.001548
MO   1:   2C  -   1.001485
MO   0:   1C  -   1.001631
Localized MO's were stored in: phenol.loc

Warning: reference  - re-canonicalizations have been set to INT 1 VIRT 1
Warning: internal orbitals are localized - no re-canonicalization of internal orbitals
Warning: UsePNO is turned on - no re-canonicalization of internal and virtual orbitals

--------------------------
CLOSED-SHELL FOCK OPERATOR
--------------------------

MDCI_FockCPCM: ediel   =  -0.015240221000
MDCI_FockCPCM: <VCPCM> =  -0.143195795913
RI-JK section for the Fock operator:
  RHF full Fock operator         ... done
  RHF frozen core Fock operator  ... done
Time needed for Fock operator              ...            0.695 sec
Reference energy                           ...   -305.650156855

--------------
DLPNO SETTINGS (2015 fully linear scaling implementation)
--------------

TCutMKN:           1.000e-03
TCutPAO:           1.000e-03
TCutPNO:           3.330e-07
TCutPNOSingles:    9.990e-09
TCutEN:            9.700e-01
TCutPAOExt:        1.000e-01
TCutPairs:         1.000e-04
TCutPre:           1.000e-06
TCutOSV:           1.000e-06
TCutDOij:          1.000e-05
TCutDO:            1.000e-02
TCutC:             1.000e-04
TCutCPAO:          1.000e-03
TCutCMO:           1.000e-03
TScaleDOMP2PreScr: 2.000e+00
TScaleMKNMP2PreScr:1.000e+01
TScalePNOMP2PreScr:1.000e+00
PAO overlap thresh 1.000e-08
Using PNOs for Singles Fock computation
Use new domains
Use fully linear algorithm

--------------------------
Calculating differential overlap integrals ... ok
--------------------------
ELECTRON PAIR PRESCREENING
--------------------------

Dipole-based pair screening          .... used

   TCutDOij = 1.000000e-05
   TCutPre  = 1.000000e-06
   .... Finished loop over pairs
Total time spent in the prescreening                  ...     0.000 sec
sum of pair energies estimated for screened out pairs ...       0.000000000000 Eh
Thresholds for map construction and integral transformation for crude MP2:
   TCutMKN                    ...     1.0e-02
   TCutDO                     ...     2.0e-02
   TCutPairs                  ...     1.0e-04
   TCutPNO_CrudeMP2           ...     3.3e-07
   TCutPNOSingles_CrudeMP2    ...     1.0e-08
--------------------------------
LOCAL RI TRANSFORMATION (IAVPAO)
--------------------------------

Orbital window:       7 to 24
Number of PAOs:     253
Basis functions:    253 (101 shells)
Aux. functions:     622 (196 shells)

Processing maps (0.0 sec)
Average map sizes:
   Aux shells -> MOs              18.0
   Aux shells -> PAOs            253.0
   MOs        -> AO shells       100.3
   PAOs       -> AO shells       101.0

Calculating integrals (0.2 sec, 21.618 MB)
Sorting integrals (0.0 sec, 21.611 MB)
Total time for the integral transformation: 0.2 sec
--------------------------------
INITIAL GUESS AND PNO GENERATION
--------------------------------

PNO truncation parameters                   .... 
    PAOOverlapThresh   =        1.000e-08

    TCutPairs          =        1.000e-04
    TCutPNO            =        3.330e-07
    TCutPNOSingles     =        9.990e-09
    TCutMP2Pairs       =        1.000e-05
    TCutMKN            =        1.000e-02
    TCutDO             =        2.000e-02

Pair selection                          .... not used
Type of local MP2 treatment                 .... semi-local MP2
Strategy for PNO selection                  .... occupation number selection
Pair density normalization                  .... MP2 norm
Spin component scaling                      .... not used

   .... Finished loop over pairs
Making pair pair interaction lists          ... done

                       ===========================
                        155 OF  171 PAIRS ARE KEPT CCSD PAIRS
                         16 OF  171 PAIRS ARE KEPT MP2 PAIRS
                          0 OF  171 PAIRS ARE SKIPPED
                       ===========================

Total time spent in the initial guess                 ...     1.408 sec
SL-MP2 correlation energy (all non-screened pairs)    ...      -1.124655860689 Eh

Initial PNO correlation energy                        ...      -1.121037926817 Eh
sum of pair energies prescreened and skipped MP2 pairs...       0.000000000000 Eh
sum of pair energies of crude MP2 skipped pairs only  ...       0.000000000000 Eh
sum of MP2 pair energies for pairs that were not kept ...      -0.000645127493 Eh
sum of PNO error estimates for the kept pairs         ...      -0.002972806379 Eh
                                                          --------------------
sum of all corrections                                         -0.003617933872
Initial total correlation energy                               -1.124655860689
Thresholds for map construction and integral transformation for fine MP2 and CCSD(T) calculation:
   TCutMKN   ...     1.0e-03
   TCutDO    ...     1.0e-02
   TCutPairs ...     1.0e-04
   TCutCMO   ...     1.0e-03
   TCutCPAO  ...     1.0e-03

--------------------------------
LOCAL RI TRANSFORMATION (IAVPAO)
--------------------------------

Orbital window:       7 to 24
Number of PAOs:     253
Basis functions:    253 (101 shells)
Aux. functions:     622 (196 shells)

Processing maps (0.0 sec)
Average map sizes:
   Aux shells -> MOs              18.0
   Aux shells -> PAOs            253.0
   MOs        -> AO shells       100.3
   PAOs       -> AO shells       101.0

Calculating integrals (0.2 sec, 21.618 MB)
Sorting integrals (0.0 sec, 21.611 MB)
Total time for the integral transformation: 0.2 sec
--------------------------------
INITIAL GUESS AND PNO GENERATION
--------------------------------

PNO truncation parameters                   .... 
    PAOOverlapThresh   =        1.000e-08

    TCutPairs          =        1.000e-04
    TCutPNO            =        3.330e-07
    TCutPNOSingles     =        9.990e-09
    TCutMP2Pairs       =        1.000e-05
    TCutMKN            =        1.000e-03
    TCutDO             =        1.000e-02

Pair selection                          .... not used
Type of local MP2 treatment                 .... semi-local MP2
Strategy for PNO selection                  .... occupation number selection
Pair density normalization                  .... MP2 norm
Spin component scaling                      .... not used

   .... Finished loop over pairs

 PNO Occupation Number Statistics: 
  | Av. % of trace(Dij) retained        ...  98.688565161011
  | sigma^2 in % of trace(Dij) retained ...   4.45e+00
  | Av. % of trace(Di) retained         ...  99.999105911040
  | sigma^2 in % of trace(Di) retained  ...   1.01e-07
 Distributions of % trace(Dij) recovered:
  |       >= 99.9  ...    54 ( 31.6 % of all pairs)
  |   [80.0, 90.0) ...     2 (  1.2 % of all pairs)
  |   [90.0, 99.0) ...    48 ( 28.1 % of all pairs)
  |   [99.0, 99.9) ...    67 ( 39.2 % of all pairs)
 Distributions of % trace(Di) recovered :
  |       >= 99.9  ...    18 (100.0 % of all I-pairs )

Making pair pair interaction lists          ... done

                       ===========================
                        155 OF  171 PAIRS ARE KEPT
                       ===========================

Total time spent in the initial guess                 ...     1.837 sec
SL-MP2 correlation energy (all non-screened pairs)    ...      -1.125254483263 Eh

Initial PNO correlation energy                        ...      -1.121605588469 Eh
sum of pair energies estimated for screened out pairs ...       0.000000000000 Eh
sum of MP2 pair energies for pairs that were not kept ...      -0.000644503493 Eh
sum of PNO error estimates for the kept pairs         ...      -0.003004391302 Eh
                                                          --------------------
sum of all corrections                                         -0.003648894794
Initial total correlation energy                               -1.125254483263
Thresholds for map construction and integral transformation for fine MP2 and CCSD(T) calculation:
   TCutMKN   ...     1.0e-03
   TCutDO    ...     1.0e-02
   TCutPairs ...     1.0e-04
   TCutCMO   ...     1.0e-03
   TCutCPAO  ...     1.0e-03

Time for aux screen maps:            0.001
Time for maps after fine MP2:            0.002
-----------------------------
LOCAL RI TRANSFORMATION (IJV)
-----------------------------

Orbital window:       7 to 24
Basis functions:    253 (101 shells)
Aux. functions:     622 (196 shells)

Processing maps (0.0 sec)
Average map sizes:
   Aux shells -> MOs(i)           18.0
   Aux shells -> MOs(j)           18.0
   MOs        -> AO shells       100.3

Calculating integrals (0.2 sec, 1.545 MB)
Sorting integrals (0.0 sec, 1.538 MB)
Total time for the integral transformation: 0.2 sec
--------------------------------
LOCAL RI TRANSFORMATION (VABPAO)
--------------------------------

Number of PAOs:     253
Basis functions:    253 (101 shells)
Aux. functions:     622 (196 shells)

Processing maps (0.0 sec)
Average map sizes:
   Aux shells -> PAOs            253.0
   PAOs       -> AO shells       101.0

Calculating integrals (0.8 sec, 573.825 MB)
Finished


-------------------------------------
Pair Pair Term precalculation with     
RI-(ij|mn) and (im|jn) transformation  
ON THE FLY                             
-------------------------------------

   IBatch   1 (of   4)              ... done (    8.984 sec)
   IBatch   2 (of   4)              ... done (   11.032 sec)
   IBatch   3 (of   4)              ... done (   11.381 sec)
   IBatch   4 (of   4)              ... done (    7.793 sec)
Total EXT                           ...          39.191 sec

---------------------
RI-PNO TRANSFORMATION
---------------------

Total Number of PNOs                   ...  6086
Average number of PNOs per pair        ...    39
Maximal number of PNOs per pair        ...    78
   #pairs with  1 -  5 PNOs   :    0
   #pairs with  6 - 10 PNOs   :    0
   #pairs with 11 - 15 PNOs   :    8
   #pairs with 16 - 20 PNOs   :   16
   #pairs with 21 - 25 PNOs   :    6
   #pairs with 26 - 30 PNOs   :   13
   #pairs with 31 - 35 PNOs   :   33
   #pairs with 36 - 40 PNOs   :   17
   #pairs with 41 - 45 PNOs   :   19
   #pairs with 46 - 50 PNOs   :   10
   #pairs with 51 - 55 PNOs   :    3
   #pairs with 56 - 60 PNOs   :    9
   #pairs with 61 - 65 PNOs   :    6
   #pairs with 71 - 75 PNOs   :   12
   #pairs with 76 - 80 PNOs   :    3

Generation of (ij|ab)[P] integrals            ... on
Generation of (ia|bc)[P],(ja|bc)[P] integrals ... on
Storage of 3 and 4 external integrals         ... on
Generation of ALL (ka|bc)[P] integrals        ... on
Keep RI integrals in memory                   ... off

Ibatch:  1 (of  1)
Starting 2-4 index PNO integral generation ... done

Timings:
Total PNO integral transformation time     ...         21.049 sec
Size of the 3-external file                ...       115 MB
Size of the 4-external file                ...       851 MB
Size of the IKJL file                      ...         0 MB
Size of the all 3-external file            ...      1041 MB
Size of the 1-external file                ...         2 MB

---------------------------------
RI-PNO TRANSFORMATION FOR SINGLES
---------------------------------

Total Number of singles PNOs                   ...  1446
Average number of PNOs per singles pair        ...    80
Maximal number of singles PNOs per pair        ...   125
   #pairs with  1 -  5 PNOs   :    0
   #pairs with  6 - 10 PNOs   :    0
   #pairs with 11 - 15 PNOs   :    0
   #pairs with 16 - 20 PNOs   :    0
   #pairs with 21 - 25 PNOs   :    0
   #pairs with 26 - 30 PNOs   :    0
   #pairs with 31 - 35 PNOs   :    0
   #pairs with 36 - 40 PNOs   :    0
   #pairs with 41 - 45 PNOs   :    0
   #pairs with 46 - 50 PNOs   :    2
   #pairs with 51 - 55 PNOs   :    6
   #pairs with 66 - 70 PNOs   :    1
   #pairs with 76 - 80 PNOs   :    3
   #pairs with > 96 PNOs      :    6

Generation of (ia|bc)[P] integrals for singles ... on

Ibatch:  1 (of  1)
Starting 2-4 index PNO integral generation ... done
Making pair/pair overlap matrices          ... done (    1.405 sec)
Size of the pair overlap file              ... 218 MB
Redoing the guess amplitudes               ... done (    0.001 sec)

-------------------------
FINAL STARTUP INFORMATION
-------------------------

E(0)                                       ...   -305.650156855
E(SL-MP2)                                  ...     -1.125254483
E(SL-MP2) including corrections            ...     -1.125254483
Initial E(tot)                             ...   -306.775411338
<T|T>                                      ...      0.339311437
Number of pairs included                   ... 155
Total number of pairs                      ... 171

------------------------------------------------
                  RHF COUPLED CLUSTER ITERATIONS
------------------------------------------------

Number of PNO amplitudes to be optimized   ...       282352
Number of non-PNO amplitudes               ...      8057520
Untruncated number of regular amplitudes   ...      8889264

Iter       E(tot)           E(Corr)          Delta-E          Residual     Time
  0   -306.775464381     -1.121658632      0.003595852      0.015816949    6.72
                           *** Turning on DIIS ***
  1   -306.810838936     -1.157033186     -0.035374555      0.006493993    6.75
  2   -306.840358711     -1.186552962     -0.029519775      0.003420247    6.73
  3   -306.846426394     -1.192620645     -0.006067683      0.002122156    6.72
  4   -306.848375854     -1.194570104     -0.001949460      0.001078871    6.72
  5   -306.849047280     -1.195241531     -0.000671426      0.000441659    6.74
  6   -306.849245324     -1.195439575     -0.000198044      0.000125559    6.73
  7   -306.849265840     -1.195460091     -0.000020516      0.000052441    6.73
  8   -306.849275762     -1.195470013     -0.000009922      0.000030723    6.73
  9   -306.849270531     -1.195464782      0.000005231      0.000018195    6.76
 10   -306.849271806     -1.195466057     -0.000001275      0.000009779    6.75
 11   -306.849271274     -1.195465524      0.000000532      0.000004383    6.74
 12   -306.849271443     -1.195465694     -0.000000169      0.000001505    6.74
 13   -306.849271320     -1.195465571      0.000000123      0.000000546    6.73
               --- The Coupled-Cluster iterations have converged ---

----------------------
COUPLED CLUSTER ENERGY
----------------------

E(0)                                       ...   -305.650156855
E(CORR)(strong-pairs)                      ...     -1.195465571
E(CORR)(weak-pairs)                        ...     -0.003648895
E(CORR)(corrected)                         ...     -1.199114466
E(TOT)                                     ...   -306.849271320
Singles Norm <S|S>**1/2                    ...      0.065843346  
T1 diagnostic                              ...      0.010973891  

------------------
LARGEST AMPLITUDES
------------------
  20-> 25  20-> 25       0.041249
  19-> 25  19-> 25       0.037089
  14-> 29  14-> 29       0.036206
  15-> 29  15-> 29       0.035807
  11-> 29  11-> 29       0.035578
  10-> 29  10-> 29       0.035475
  13-> 25  13-> 25       0.034901
  24-> 25  24-> 25       0.033782
  18-> 25  18-> 25       0.033682
  21-> 29  21-> 29       0.033117
  23-> 26  23-> 26       0.032458
  20-> 25  19-> 25       0.031868
  12-> 26  12-> 26       0.030712
  24-> 27  24-> 27       0.030233
  17-> 26  17-> 26       0.029813
  17-> 25  17-> 25       0.029744


        !!!!!!!!!!!!!!!!!!!!!!!!!!!!!!!!!!!!!!!!!!!!!!!!!!!!!!!!!!!!!!!!!!!!!!!!!! 
        !  Warning: Linearized densities requested! These are not the proper     !
        !  density matrices for non-variational theories, e.g., CCSD, QCISD.     !
        !  It is better to use the Density = Unrelaxed option in the input.      !
        !!!!!!!!!!!!!!!!!!!!!!!!!!!!!!!!!!!!!!!!!!!!!!!!!!!!!!!!!!!!!!!!!!!!!!!!!! 

NORM  =      1.424904336 sqrt=     1.193693569
W(HF) =      0.701801500
------------------------------------------------------------------------------
                           ORCA POPULATION ANALYSIS
------------------------------------------------------------------------------
Input electron density              ... phenol.mdcip
BaseName (.gbw .S,...)              ... phenol

                    ********************************
                    * MULLIKEN POPULATION ANALYSIS *
                    ********************************

-----------------------
MULLIKEN ATOMIC CHARGES
-----------------------
   0 H :    0.181472
   1 C :   -0.164146
   2 C :   -0.185429
   3 H :    0.173079
   4 C :   -0.156219
   5 H :    0.185300
   6 C :   -0.221441
   7 H :    0.164999
   8 C :    0.191069
   9 C :   -0.231167
  10 H :    0.180879
  11 O :   -0.506595
  12 H :    0.388201
Sum of atomic charges:    0.0000000

--------------------------------
MULLIKEN REDUCED ORBITAL CHARGES
--------------------------------
  0 H s       :     0.793993  s :     0.793993
      pz      :     0.005156  p :     0.024535
      px      :     0.008946
      py      :     0.010432
[...]
  2   0.005707575586   0.002078930950         0.013
  3   0.009322493960   0.002860088861         0.013
  4   0.014021978449   0.004549974079         0.013
  5   0.013970525453   0.001351467420         0.013
  6   0.011689633966   0.004834846567         0.013
  7   0.013195085479   0.001082606877         0.013
  8   0.008154852978   0.004436244826         0.013
  9   0.009289143694   0.001206169145         0.013
 10   0.004319797468   0.001803039120         0.013
 11   0.009616228452   0.001806067375         0.013
 12   0.004849689246   0.001263392783         0.013
 13   0.008480269739   0.002691307326         0.013
 14   0.010316621011   0.001087491233         0.013
 15   0.005321436255   0.002410118432         0.013
 16   0.007150536256   0.000764571356         0.013
 17   0.001786754613   0.000395464435         0.013
 18   0.001357910130   0.000923065184         0.013
 19   0.004337741814   0.001619192423         0.013
 20   0.007769197588   0.000530860290         0.013
 21   0.000939460208   0.000294796924         0.013
 22   0.000735007818   0.000306199412         0.013
 23   0.002512094597   0.001357041114         0.013
 24   0.003619164499   0.000423576862         0.013
 25   0.000994842778   0.000187825923         0.013
 26   0.001097311201   0.000250406391         0.013
 27   0.002474571700   0.001002676449         0.013
 28   0.004338709953   0.000292220353         0.013
 29   0.000906074781   0.000140789646         0.013
 30   0.000550477762   0.000164519041         0.013
 31   0.001162336726   0.000339178920         0.013
 32   0.003310209084   0.000463490119         0.013
 33   0.002143669911   0.000285528501         0.014
 34   0.000821746618   0.000111239402         0.014
 35   0.000409751495   0.000109363386         0.014
 36   0.000958425129   0.000263749552         0.014
 37   0.003624721598   0.000349727608         0.014
 38   0.001420395708   0.000154576596         0.014
 39   0.000899154964   0.000127929078         0.014
 40   0.000573081069   0.000077753658         0.014
 41   0.000234480666   0.000057886543         0.014
 42   0.004025158643   0.000439039430         0.014
  --- complex eigenvalues and eigenvectors
 42   0.004025158643   0.000439039430         0.014
 42   0.004025158643   0.000439039430         0.014
 43   0.003139533545   0.000189832351         0.014
 44   0.000344582841   0.000024712615         0.014
 45   0.000048473404   0.000007986163         0.014

      *** CONVERGENCE OF RESIDUAL NORM REACHED ***
       --- The STEOM iterations have converged ---
Solving Root No  10 
FollowCIS is 1
Iter    Delta-E          Residual              Time
---------------------------------------------------
  0   0.290666644931   0.007359199785         0.014
  1   0.007098612493   0.002267436792         0.013
  2   0.006358486039   0.003412372966         0.013
  3   0.009939674951   0.002812650144         0.013
  4   0.006948915883   0.002448436637         0.013
  5   0.007313568359   0.003204471271         0.013
  6   0.005917565750   0.000945621764         0.013
  7   0.004060119069   0.000904768275         0.013
  8   0.011807165541   0.005711756675         0.013
  9   0.008137074285   0.000504759013         0.013
 10   0.001051091804   0.000120847992         0.013
 11   0.000600574334   0.000238596365         0.013
 12   0.001279858420   0.000503731283         0.013
 13   0.006253362300   0.000978581075         0.013
 14   0.002838328624   0.000691649086         0.013
 15   0.002247991401   0.000444089006         0.013
 16   0.002380458773   0.000553745495         0.013
 17   0.006160226260   0.000488785856         0.013
 18   0.001687900805   0.000142576772         0.013
 19   0.000347379025   0.000037023090         0.013
 20   0.000035027029   0.000017827720         0.013
 21   0.000012870103   0.000035355696         0.013
 22   0.000315652332   0.000148542612         0.013
 23   0.001251066247   0.000385360123         0.013
 24   0.000679896893   0.000037460455         0.013
 25   0.000155847255   0.000014889444         0.013
 26   0.000053370462   0.000008863761         0.013

      *** CONVERGENCE OF RESIDUAL NORM REACHED ***
       --- The STEOM iterations have converged ---

------------------
STEOM-CCSD RESULTS
------------------

IROOT=  1:  0.163411 au     4.447 eV   35864.6 cm**-1
  Amplitude    Excitation
  -0.152970    23 ->  25
  -0.568307    23 ->  26
  -0.100460    23 ->  27
   0.779292    24 ->  25
  -0.156427    24 ->  26

Percentage Active Character     99.05

  Amplitude    Excitation in Canonical Basis
  -0.154695    23 ->  25
   0.558694    23 ->  26
   0.115274    23 ->  27
   0.770799    24 ->  25
   0.163482    24 ->  26

IROOT=  2:  0.222427 au     6.053 eV   48817.1 cm**-1
  Amplitude    Excitation
   0.149074    22 ->  26
   0.452835    23 ->  25
  -0.111210    23 ->  26
   0.191770    24 ->  25
   0.824562    24 ->  26

Percentage Active Character     97.57

Warning:: the state may have not converged with respect to active space 
-------------------- Handle with Care -------------------- 

  Amplitude    Excitation in Canonical Basis
  -0.151169    22 ->  26
   0.450131    23 ->  25
   0.114110    23 ->  26
   0.197953    24 ->  25
  -0.816316    24 ->  26

IROOT=  3:  0.248155 au     6.753 eV   54463.8 cm**-1
  Amplitude    Excitation
  -0.129753    22 ->  26
   0.760475    23 ->  25
  -0.311181    23 ->  26
  -0.172380    24 ->  25
  -0.418944    24 ->  26
   0.155557    24 ->  27

Percentage Active Character     95.70

Warning:: the state may have not converged with respect to active space 
-------------------- Handle with Care -------------------- 

  Amplitude    Excitation in Canonical Basis
   0.131441    22 ->  26
   0.753820    23 ->  25
   0.319198    23 ->  26
  -0.178207    24 ->  25
   0.415557    24 ->  26
  -0.140016    24 ->  27

IROOT=  4:  0.250103 au     6.806 eV   54891.4 cm**-1
  Amplitude    Excitation
  -0.215899    22 ->  25
  -0.257059    23 ->  25
  -0.698475    23 ->  26
  -0.540061    24 ->  25
   0.188436    24 ->  26

Percentage Active Character     95.63

Warning:: the state may have not converged with respect to active space 
-------------------- Handle with Care -------------------- 

  Amplitude    Excitation in Canonical Basis
  -0.219315    22 ->  25
  -0.263536    23 ->  25
   0.690519    23 ->  26
  -0.535235    24 ->  25
  -0.192246    24 ->  26

IROOT=  5:  0.271438 au     7.386 eV   59573.7 cm**-1
  Amplitude    Excitation
  -0.130717    19 ->  25
  -0.242455    21 ->  25
  -0.119918    21 ->  27
   0.520209    22 ->  25
  -0.213636    22 ->  27
  -0.186723    23 ->  26
  -0.120574    24 ->  25
  -0.626396    24 ->  27
   0.200110    24 ->  28
   0.150903    24 ->  29
  -0.101109    24 ->  30

Percentage Active Character     94.30

Warning:: the state may have not converged with respect to active space 
-------------------- Handle with Care -------------------- 

  Amplitude    Excitation in Canonical Basis
   0.124919    19 ->  27
  -0.221740    21 ->  25
   0.114750    21 ->  27
   0.537553    22 ->  25
   0.212136    22 ->  27
   0.187720    23 ->  26
  -0.117517    24 ->  25
   0.630387    24 ->  27
  -0.177235    24 ->  28

IROOT=  6:  0.274318 au     7.465 eV   60205.8 cm**-1
  Amplitude    Excitation
   0.170267    19 ->  25
   0.453700    21 ->  25
  -0.651956    22 ->  25
  -0.192036    22 ->  27
   0.107680    24 ->  25
  -0.430454    24 ->  27
   0.171573    24 ->  28
   0.106298    24 ->  29

Percentage Active Character     94.43

Warning:: the state may have not converged with respect to active space 
-------------------- Handle with Care -------------------- 

  Amplitude    Excitation in Canonical Basis
   0.426555    21 ->  25
  -0.677037    22 ->  25
   0.198148    22 ->  27
   0.114698    24 ->  25
   0.432885    24 ->  27
  -0.152894    24 ->  28

IROOT=  7:  0.281280 au     7.654 eV   61733.9 cm**-1
  Amplitude    Excitation
  -0.202471    19 ->  26
   0.102856    20 ->  26
   0.112215    20 ->  31
  -0.132783    21 ->  25
  -0.419366    21 ->  26
   0.111029    22 ->  25
   0.782238    22 ->  26
   0.131888    22 ->  27
  -0.203134    24 ->  26

Percentage Active Character     92.76

Warning:: the state may have not converged with respect to active space 
-------------------- Handle with Care -------------------- 

  Amplitude    Excitation in Canonical Basis
  -0.137653    19 ->  26
  -0.130127    21 ->  25
   0.387634    21 ->  26
   0.123364    22 ->  25
  -0.805953    22 ->  26
  -0.155229    22 ->  27
   0.208222    24 ->  26

IROOT=  8:  0.295033 au     8.028 eV   64752.2 cm**-1
  Amplitude    Excitation
   0.337540    24 ->  27
   0.900597    24 ->  28
   0.130441    24 ->  29

Percentage Active Character     99.01

  Amplitude    Excitation in Canonical Basis
  -0.289440    24 ->  27
  -0.898944    24 ->  28

IROOT=  9:  0.308441 au     8.393 eV   67695.0 cm**-1
  Amplitude    Excitation
  -0.166042    20 ->  25
   0.131421    20 ->  26
   0.116789    21 ->  25
   0.496728    21 ->  26
   0.210863    22 ->  26
   0.692581    23 ->  28
   0.133891    23 ->  29
  -0.172302    23 ->  30
  -0.180103    24 ->  31

Percentage Active Character     95.87

Warning:: the state may have not converged with respect to active space 
-------------------- Handle with Care -------------------- 

  Amplitude    Excitation in Canonical Basis
   0.192390    20 ->  25
   0.143812    20 ->  26
   0.124902    21 ->  25
  -0.498347    21 ->  26
  -0.183934    22 ->  26
  -0.692363    23 ->  28
  -0.131029    23 ->  30
  -0.143575    24 ->  34

IROOT= 10:  0.329843 au     8.975 eV   72392.2 cm**-1
  Amplitude    Excitation
   0.103880    21 ->  26
   0.163334    22 ->  28
  -0.130795    23 ->  27
   0.249812    23 ->  29
   0.164296    24 ->  27
  -0.211208    24 ->  28
   0.767826    24 ->  29
  -0.312258    24 ->  30
   0.122925    24 ->  32
  -0.163183    24 ->  33

Percentage Active Character     92.53

Warning:: the state may have not converged with respect to active space 
-------------------- Handle with Care -------------------- 

  Amplitude    Excitation in Canonical Basis
  -0.157928    22 ->  28
   0.136240    23 ->  27
   0.239790    23 ->  29
  -0.120376    24 ->  27
   0.124691    24 ->  28
   0.719032    24 ->  29
  -0.459343    24 ->  30
   0.125205    24 ->  31



-------------------
CPCM SOLVENT SHIFT
-------------------

Reading the CPCM data                  ... done
Making difference densities            ... done
Computing the potentials               ... done
Calculating charges                    ... done

---------------------------------
     CALCULATED SOLVENT SHIFTS   
            CPCM  MODEL          
---------------------------------

Contributions of the 'fast' term to the solvent shift

 State Shift(Eh) Shift(eV) Shift(cm**-1) Shift(nm) Esteom(eV)  Esteom+SHIFT(eV)
-------------------------------------------------------------------------------
   0: -0.0002331 -0.006      -51.2        0.4      4.447          4.440
   1: -0.0004981 -0.014     -109.3        0.5      6.053          6.039
   2: -0.0003583 -0.010      -78.6        0.3      6.753          6.743
   3: -0.0004245 -0.012      -93.2        0.3      6.806          6.794
   4: -0.0031756 -0.086     -697.0        2.0      7.386          7.300
   5: -0.0010240 -0.028     -224.7        0.6      7.465          7.437
   6: -0.0010239 -0.028     -224.7        0.6      7.654          7.626
   7: -0.0063206 -0.172    -1387.2        3.4      8.028          7.856
   8: -0.0014962 -0.041     -328.4        0.7      8.393          8.352
   9: -0.0076514 -0.208    -1679.3        3.3      8.975          8.767
Calculating the Dipole integrals                  ... done
Transforming integrals                            ... done
-----------------------------------------------------------------------------
         ABSORPTION SPECTRUM VIA TRANSITION ELECTRIC DIPOLE MOMENTS
-----------------------------------------------------------------------------
State   Energy  Wavelength   fosc         T2         TX        TY        TZ  
        (cm-1)    (nm)                  (au**2)     (au)      (au)      (au) 
-----------------------------------------------------------------------------
   1   35813.4    279.2   0.009375768   0.08619   0.25077   0.14446   0.04858
   2   48707.8    205.3   0.062407387   0.42181   0.08516   0.54737   0.33758
   3   54385.1    183.9   0.779323709   4.71752   0.30041   2.08926   0.50410
   4   54798.2    182.5   0.816306205   4.90413   2.11820   0.22371   0.59969
   5   58876.8    169.8   0.136263385   0.76192   0.30922   0.81001   0.02539
   6   59981.1    166.7   0.047784312   0.26227   0.40752   0.19580   0.18779
   7   61509.2    162.6   0.025532715   0.13666   0.17903   0.30064   0.11879
   8   63364.9    157.8   0.017566407   0.09127   0.21221   0.05061   0.20791
   9   67366.6    148.4   0.010878250   0.05316   0.22643   0.02286   0.02863
  10   70712.9    141.4   0.008533627   0.03973   0.09086   0.09925   0.14508

 STEOM-CCSD done in (   36.5)


------------------------------------------------------------------------------- 
                                     TIMINGS                                   
------------------------------------------------------------------------------- 


Total execution time                   ...      426.471 sec

Localization of occupied MO's          ...        0.263 sec (  0.1%)
Fock Matrix Formation                  ...        0.695 sec (  0.2%)
Global overlap, Fock, MKN matrices     ...        0.070 sec (  0.0%)
Differential overlap integrals         ...        0.056 sec (  0.0%)
Organizing maps                        ...        0.007 sec (  0.0%)
RI 3-index integral generations        ...        1.454 sec (  0.3%)
RI-PNO integral transformation         ...       69.786 sec ( 16.4%)
Initial Guess                          ...        3.289 sec (  0.8%)
DIIS Solver                            ...        0.168 sec (  0.0%)
State Vector Update                    ...        0.010 sec (  0.0%)
Sigma-vector construction              ...       94.097 sec ( 22.1%)
  <D|H|D>(0-ext)                       ...        2.892 sec (  3.1% of sigma)
  <D|H|D>(2-ext Fock)                  ...        0.018 sec (  0.0% of sigma)
  <D|H|D>(2-ext)                       ...       14.868 sec ( 15.8% of sigma)
  <D|H|D>(4-ext)                       ...        9.403 sec ( 10.0% of sigma)
  <D|H|D>(4-ext-corr)                  ...       47.629 sec ( 50.6% of sigma)
  CCSD doubles correction              ...        0.082 sec (  0.1% of sigma)
  <S|H|S>                              ...        0.209 sec (  0.2% of sigma)
  <S|H|D>(1-ext)                       ...        0.399 sec (  0.4% of sigma)
  <D|H|S>(1-ext)                       ...        0.005 sec (  0.0% of sigma)
  <S|H|D>(3-ext)                       ...        0.153 sec (  0.2% of sigma)
  Fock-dressing                        ...        7.903 sec (  8.4% of sigma)
  Singles amplitudes                   ...        0.296 sec (  0.3% of sigma)
  (ik|jl)-dressing                     ...        2.463 sec (  2.6% of sigma)
  (ij|ab),(ia|jb)-dressing             ...        3.347 sec (  3.6% of sigma)
  Pair energies                        ...        0.004 sec (  0.0% of sigma)
Total Time for computing EOM-CCSD      ...      210.751 sec ( 49.4% of ALL)
  Dressing integrals                   ...        2.788 sec (  1.3% of (EOM))
  EOM Singles                          ...        1.934 sec (  0.9% of (EOM))
  EOM Doubles                          ...      194.303 sec ( 92.2% of (EOM))
  Build Hamiltonian                    ...        1.050 sec (  0.5% of (EOM))
  Diagonalize Hamiltonian              ...        0.094 sec (  0.0% of (EOM))
  Ritz vectors                         ...        2.398 sec (  1.1% of (EOM))
  Residual vectors                     ...        2.591 sec (  1.2% of (EOM))
One-particle density matrix            ...        0.140 sec (  0.0%)


-------------------------   --------------------
FINAL SINGLE POINT ENERGY      -306.686093383929
-------------------------   --------------------


                            ***************************************
                            *     ORCA property calculations      *
                            ***************************************

                                    ---------------------
                                    Active property flags
                                    ---------------------
   (+) Dipole Moment


------------------------------------------------------------------------------
                       ORCA ELECTRIC PROPERTIES CALCULATION
------------------------------------------------------------------------------

Dipole Moment Calculation                       ... on
Quadrupole Moment Calculation                   ... off
Polarizability Calculation                      ... off
GBWName                                         ... phenol.gbw
Electron density file                           ... phenol.scfp
The origin for moment calculation is the CENTER OF MASS  = (10.006698,  7.957934 13.405457)

-------------
DIPOLE MOMENT
-------------
                                X             Y             Z
Electronic contribution:      0.65581       1.34266      -0.54367
Nuclear contribution   :     -0.13382      -1.84032       0.92386
                        -----------------------------------------
Total Dipole Moment    :      0.52199      -0.49766       0.38019
                        -----------------------------------------
Magnitude (a.u.)       :      0.81528
Magnitude (Debye)      :      2.07228



--------------------
Rotational spectrum 
--------------------
 
Rotational constants in cm-1:     0.180663     0.083071     0.057279 
Rotational constants in MHz :  5416.131551  2490.403423  1717.171817 

 Dipole components along the rotational axes: 
x,y,z [a.u.] :    -0.330360     0.630789     0.397052 
x,y,z [Debye]:    -0.839708     1.603337     1.009226 

 

                           *** MDCI DENSITY ***

------------------------------------------------------------------------------
                       ORCA ELECTRIC PROPERTIES CALCULATION
------------------------------------------------------------------------------

Dipole Moment Calculation                       ... on
Quadrupole Moment Calculation                   ... off
Polarizability Calculation                      ... off
GBWName                                         ... phenol.gbw
Electron density file                           ... phenol.mdcip
The origin for moment calculation is the CENTER OF MASS  = (10.006698,  7.957934 13.405457)

-------------
DIPOLE MOMENT
-------------
                                X             Y             Z
Electronic contribution:      0.65911       1.40718      -0.57402
Nuclear contribution   :     -0.13382      -1.84032       0.92386
                        -----------------------------------------
Total Dipole Moment    :      0.52530      -0.43314       0.34983
                        -----------------------------------------
Magnitude (a.u.)       :      0.76546
Magnitude (Debye)      :      1.94564



--------------------
Rotational spectrum 
--------------------
 
Rotational constants in cm-1:     0.180663     0.083071     0.057279 
Rotational constants in MHz :  5416.131551  2490.403423  1717.171817 

 Dipole components along the rotational axes: 
x,y,z [a.u.] :    -0.264312     0.606688     0.384702 
x,y,z [Debye]:    -0.671827     1.542078     0.977835 

 

Timings for individual modules:

Sum of individual times         ...      436.626 sec (=   7.277 min)
GTO integral calculation        ...        0.784 sec (=   0.013 min)   0.2 %
SCF iterations                  ...        8.935 sec (=   0.149 min)   2.0 %
MDCI module                     ...      426.908 sec (=   7.115 min)  97.8 %
                             ****ORCA TERMINATED NORMALLY****
TOTAL RUN TIME: 0 days 0 hours 7 minutes 16 seconds 942 msec
