15
Lattice="15.934 0.0 0.0 0.0 15.934 0.0 0.0 0.0 15.934" Properties=species:S:1:pos:R:3 Time=0.0 energy=1.0 pbc="T T T"
O        4.64500000       4.12200000      10.42200000
C        5.47800000       5.11500000       9.83300000
C        5.51800000       6.41900000      10.37400000
H        4.99200000       6.67900000      11.25400000
C        6.38500000       7.36100000       9.72600000
H        6.42000000       8.44900000       9.94800000
C        7.03300000       7.05800000       8.55300000
N        7.96700000       7.96700000       7.96700000
H        7.68200000       8.95700000       8.25300000
H        7.98800000       7.86400000       6.93300000
C        6.80600000       5.81600000       7.88400000
H        7.24800000       5.57800000       6.97400000
C        6.00800000       4.86600000       8.54400000
H        5.89600000       3.83900000       8.15800000
H        3.60700000       4.34400000      10.18700000
15
Lattice="15.934 0.0 0.0 0.0 15.934 0.0 0.0 0.0 15.934" Properties=species:S:1:pos:R:3 Time=0.0 energy=1.0 pbc="T T T"
O        4.81200000       3.76600000       9.97100000
C        5.56000000       4.88900000       9.41500000
C        5.40500000       6.18500000       9.96700000
H        4.85100000       6.24100000      10.89600000
C        6.20000000       7.21100000       9.39900000
H        6.16300000       8.18700000       9.85400000
C        6.98800000       6.98500000       8.28800000
N        7.96700000       7.96700000       7.96700000
H        7.68300000       8.84700000       8.34300000
H        8.20900000       8.07600000       6.96700000
C        6.90200000       5.73200000       7.59400000
H        7.27600000       5.78500000       6.62100000
C        6.18100000       4.67800000       8.15300000
H        6.02700000       3.82200000       7.49500000
H        3.83900000       4.15300000       9.88600000
15
Lattice="15.934 0.0 0.0 0.0 15.934 0.0 0.0 0.0 15.934" Properties=species:S:1:pos:R:3 Time=0.0 energy=1.0 pbc="T T T"
O        4.46500000       3.83400000       9.39900000
C        5.18800000       4.96600000       9.01000000
C        5.07500000       6.22600000       9.64500000
H        4.30300000       6.31000000      10.39200000
C        5.90100000       7.27400000       9.21000000
H        5.82300000       8.24900000       9.70400000
C        6.87700000       7.03200000       8.26900000
N        7.96700000       7.96700000       7.96700000
H        7.80500000       8.91300000       8.29400000
H        8.18300000       8.03000000       6.92500000
C        6.89100000       5.76200000       7.56400000
H        7.68200000       5.62200000       6.78500000
C        6.17100000       4.72000000       8.03700000
H        6.14600000       3.76400000       7.41500000
H        3.48100000       3.94300000       9.05800000
15
Lattice="15.934 0.0 0.0 0.0 15.934 0.0 0.0 0.0 15.934" Properties=species:S:1:pos:R:3 Time=0.0 energy=1.0 pbc="T T T"
O        4.29900000       4.09300000       9.83200000
C        5.24300000       5.05100000       9.50800000
C        5.09000000       6.45500000       9.80900000
H        4.36200000       6.77500000      10.55300000
C        5.94900000       7.39900000       9.22700000
H        5.82800000       8.48400000       9.41800000
C        7.00300000       6.99900000       8.42900000
N        7.96700000       7.96700000       7.96700000
H        8.02100000       8.91600000       8.36300000
H        7.74700000       7.99900000       6.93500000
C        7.14600000       5.64100000       8.13000000
H        7.90900000       5.30600000       7.37600000
C        6.37500000       4.62900000       8.78500000
H        6.40000000       3.56600000       8.42900000
H        3.24200000       4.38000000       9.62300000
15
Lattice="15.934 0.0 0.0 0.0 15.934 0.0 0.0 0.0 15.934" Properties=species:S:1:pos:R:3 Time=0.0 energy=1.0 pbc="T T T"
O        4.49300000       3.99700000       9.77000000
C        5.36800000       4.98800000       9.41300000
C        5.27100000       6.31400000       9.90300000
H        4.48500000       6.61600000      10.63200000
C        6.08900000       7.32300000       9.39900000
H        5.99000000       8.36800000       9.68800000
C        6.96700000       7.04200000       8.33400000
N        7.96700000       7.96700000       7.96700000
H        7.73000000       8.94100000       8.22700000
H        8.12900000       7.95700000       6.93800000
C        7.19000000       5.70400000       7.98300000
H        7.83300000       5.51200000       7.08900000
C        6.36000000       4.72600000       8.47400000
H        6.61400000       3.73700000       8.11900000
H        3.48800000       4.24700000       9.62800000
15
Lattice="15.934 0.0 0.0 0.0 15.934 0.0 0.0 0.0 15.934" Properties=species:S:1:pos:R:3 Time=0.0 energy=1.0 pbc="T T T"
O        5.12500000       3.45500000       9.81800000
C        5.71900000       4.63700000       9.27400000
C        5.48700000       5.92500000       9.82900000
H        4.78000000       6.04300000      10.68800000
C        6.14000000       7.07700000       9.31400000
H        5.98600000       8.02500000       9.85600000
C        7.10200000       6.95800000       8.33200000
N        7.96700000       7.96700000       7.96700000
H        7.49700000       8.84400000       8.22100000
H        8.16400000       8.00900000       6.93900000
C        7.25900000       5.69300000       7.76800000
H        7.81900000       5.54900000       6.91000000
C        6.65300000       4.51000000       8.25700000
H        6.72500000       3.66200000       7.62100000
H        4.12100000       3.65100000       9.95200000
15
Lattice="15.934 0.0 0.0 0.0 15.934 0.0 0.0 0.0 15.934" Properties=species:S:1:pos:R:3 Time=0.0 energy=1.0 pbc="T T T"
O        4.51800000       3.75400000       9.70900000
C        5.22300000       4.82800000       9.18200000
C        4.97700000       6.14700000       9.59400000
H        4.11600000       6.33100000      10.24800000
C        5.84600000       7.19300000       9.23700000
H        5.58900000       8.13800000       9.62300000
C        6.95900000       6.96900000       8.39800000
N        7.96700000       7.96700000       7.96700000
H        7.60700000       8.90600000       8.27200000
H        8.00600000       7.98500000       6.96700000
C        7.13400000       5.63300000       7.98200000
H        8.08800000       5.45600000       7.34200000
C        6.28800000       4.55900000       8.30600000
H        6.49900000       3.52800000       7.92900000
H        3.55000000       3.87100000       9.34600000
15
Lattice="15.934 0.0 0.0 0.0 15.934 0.0 0.0 0.0 15.934" Properties=species:S:1:pos:R:3 Time=0.0 energy=1.0 pbc="T T T"
O        4.44400000       3.98200000       9.69400000
C        5.23500000       4.98100000       9.19600000
C        5.06600000       6.32100000       9.51800000
H        4.28200000       6.60400000      10.19600000
C        5.91200000       7.34600000       9.09100000
H        5.87800000       8.25800000       9.58500000
C        6.98800000       6.97600000       8.26800000
N        7.96700000       7.96700000       7.96700000
H        7.92400000       8.87400000       8.50900000
H        7.91400000       8.22400000       6.98100000
C        7.07800000       5.68000000       7.77600000
H        7.99500000       5.52600000       7.12800000
C        6.27400000       4.65800000       8.31400000
H        6.52200000       3.64100000       7.94200000
H        3.43200000       4.18800000       9.51300000
15
Lattice="15.934 0.0 0.0 0.0 15.934 0.0 0.0 0.0 15.934" Properties=species:S:1:pos:R:3 Time=0.0 energy=1.0 pbc="T T T"
O        4.71100000       3.99000000       9.91000000
C        5.43100000       5.00500000       9.34500000
C        5.28400000       6.35900000       9.81600000
H        4.59500000       6.60000000      10.60600000
C        6.09200000       7.41200000       9.32700000
H        5.98900000       8.43500000       9.62200000
C        7.00900000       7.05100000       8.36300000
N        7.96700000       7.96700000       7.96700000
H        7.95600000       8.89800000       8.43500000
H        7.92500000       8.13800000       6.93100000
C        7.14800000       5.76500000       7.86400000
H        7.85100000       5.64700000       6.99200000
C        6.38000000       4.74700000       8.33400000
H        6.42600000       3.77800000       7.78000000
H        3.76800000       4.12200000       9.47900000
15
Lattice="15.934 0.0 0.0 0.0 15.934 0.0 0.0 0.0 15.934" Properties=species:S:1:pos:R:3 Time=0.0 energy=1.0 pbc="T T T"
O        4.51100000       4.01300000      10.35800000
C        5.27000000       5.05300000       9.77700000
C        5.12900000       6.40300000      10.11600000
H        4.47900000       6.64400000      10.96000000
C        6.03300000       7.35600000       9.57600000
H        6.02100000       8.36400000       9.92200000
C        6.99000000       7.05200000       8.55900000
N        7.96700000       7.96700000       7.96700000
H        7.93700000       8.90000000       8.42000000
H        7.65000000       8.19700000       6.95000000
C        7.03500000       5.71500000       8.18000000
H        7.66600000       5.36800000       7.39700000
C        6.18400000       4.73100000       8.77300000
H        6.43500000       3.74100000       8.49900000
H        3.59500000       4.05800000       9.79800000
15
Lattice="15.934 0.0 0.0 0.0 15.934 0.0 0.0 0.0 15.934" Properties=species:S:1:pos:R:3 Time=0.0 energy=1.0 pbc="T T T"
O        4.62400000       4.05900000      10.07900000
C        5.49600000       4.98900000       9.52500000
C        5.32000000       6.33900000       9.89500000
H        4.53400000       6.63500000      10.64200000
C        6.07300000       7.36800000       9.35900000
H        6.00200000       8.46400000       9.43300000
C        7.12200000       6.93000000       8.53000000
N        7.96700000       7.96700000       7.96700000
H        7.56500000       8.87900000       8.19700000
H        7.93400000       7.88500000       6.92600000
C        7.39400000       5.60200000       8.14500000
H        8.04800000       5.45300000       7.30300000
C        6.53200000       4.63900000       8.63800000
H        6.57400000       3.65000000       8.24000000
H        3.66800000       4.13200000       9.57400000
15
Lattice="15.934 0.0 0.0 0.0 15.934 0.0 0.0 0.0 15.934" Properties=species:S:1:pos:R:3 Time=0.0 energy=1.0 pbc="T T T"
O        4.65400000       3.74100000       9.98700000
C        5.44700000       4.83600000       9.47900000
C        5.18200000       6.15700000       9.87700000
H        4.36900000       6.39600000      10.63900000
C        6.00100000       7.22500000       9.33100000
H        5.85600000       8.25100000       9.66800000
C        7.02000000       7.04700000       8.40800000
N        7.96700000       7.96700000       7.96700000
H        7.84800000       8.94200000       8.36000000
H        8.02400000       8.00100000       6.94900000
C        7.35100000       5.70200000       8.09600000
H        8.16700000       5.48500000       7.43700000
C        6.62600000       4.62900000       8.59900000
H        6.89700000       3.62400000       8.35500000
H        3.68700000       4.06000000       9.85100000
15
Lattice="15.934 0.0 0.0 0.0 15.934 0.0 0.0 0.0 15.934" Properties=species:S:1:pos:R:3 Time=0.0 energy=1.0 pbc="T T T"
O        4.94500000       3.46700000       9.77800000
C        5.67400000       4.62200000       9.41800000
C        5.42900000       5.91400000       9.91100000
H        4.54000000       6.11700000      10.49700000
C        6.22200000       6.96100000       9.44000000
H        5.90500000       7.99000000       9.70700000
C        7.23500000       6.85300000       8.45700000
N        7.96700000       7.96700000       7.96700000
H        7.38000000       8.82200000       8.19600000
H        8.05700000       7.89400000       6.93600000
C        7.44300000       5.53900000       8.00600000
H        8.11500000       5.24700000       7.11000000
C        6.68700000       4.47000000       8.47700000
H        6.81000000       3.42500000       8.08800000
H        4.01700000       3.77100000       9.64000000
15
Lattice="15.934 0.0 0.0 0.0 15.934 0.0 0.0 0.0 15.934" Properties=species:S:1:pos:R:3 Time=0.0 energy=1.0 pbc="T T T"
O        5.10300000       3.46700000      10.05500000
C        5.84800000       4.62500000       9.62200000
C        5.57600000       5.93300000      10.08300000
H        4.79100000       6.19600000      10.85400000
C        6.26200000       6.99200000       9.50300000
H        5.92000000       7.97500000       9.73900000
C        7.30400000       6.89400000       8.55700000
N        7.96700000       7.96700000       7.96700000
H        7.58300000       8.88400000       8.36700000
H        7.90200000       7.98600000       6.90800000
C        7.58600000       5.60300000       8.11100000
H        8.37800000       5.42500000       7.43500000
C        6.84600000       4.48900000       8.58400000
H        7.00700000       3.52600000       8.13500000
H        4.16300000       3.78300000       9.90600000
15
Lattice="15.934 0.0 0.0 0.0 15.934 0.0 0.0 0.0 15.934" Properties=species:S:1:pos:R:3 Time=0.0 energy=1.0 pbc="T T T"
O        5.35200000       3.54400000      10.18300000
C        5.96200000       4.70500000       9.65400000
C        5.59400000       6.02600000      10.04800000
H        4.86100000       6.24600000      10.79100000
C        6.25600000       7.08600000       9.42900000
H        5.83600000       8.09900000       9.54400000
C        7.27200000       6.88200000       8.49100000
N        7.96700000       7.96700000       7.96700000
H        7.71500000       8.79500000       8.45900000
H        7.86500000       8.08300000       6.91900000
C        7.53500000       5.62900000       8.01600000
H        8.20900000       5.43500000       7.24700000
C        6.76900000       4.56300000       8.54900000
H        7.00600000       3.59600000       8.20100000
H        4.36000000       3.60000000       9.97900000
15
Lattice="15.934 0.0 0.0 0.0 15.934 0.0 0.0 0.0 15.934" Properties=species:S:1:pos:R:3 Time=0.0 energy=1.0 pbc="T T T"
O        4.97600000       3.66700000       9.81100000
C        5.71500000       4.80900000       9.53100000
C        5.37800000       6.10200000       9.90100000
H        4.57300000       6.26000000      10.58800000
C        6.14400000       7.15800000       9.41200000
H        5.79600000       8.15500000       9.69200000
C        7.19100000       6.95800000       8.54400000
N        7.96700000       7.96700000       7.96700000
H        7.97800000       8.79500000       8.58500000
H        7.77700000       8.18900000       6.97800000
C        7.57700000       5.61800000       8.30000000
H        8.40900000       5.37100000       7.59400000
C        6.79500000       4.54900000       8.67900000
H        6.87000000       3.57900000       8.15200000
H        4.02000000       3.95700000       9.77800000
15
Lattice="15.934 0.0 0.0 0.0 15.934 0.0 0.0 0.0 15.934" Properties=species:S:1:pos:R:3 Time=0.0 energy=1.0 pbc="T T T"
O        4.58100000       3.75200000       9.75300000
C        5.26800000       4.83200000       9.15500000
C        4.99500000       6.13100000       9.54000000
H        4.11000000       6.29500000      10.14400000
C        5.79600000       7.21100000       9.03100000
H        5.48200000       8.22000000       9.34600000
C        6.96300000       6.99800000       8.34200000
N        7.96700000       7.96700000       7.96700000
H        7.68100000       8.94400000       8.27100000
H        7.98600000       8.02000000       6.94300000
C        7.26500000       5.64300000       7.99000000
H        8.27700000       5.42600000       7.55000000
C        6.49900000       4.55800000       8.46900000
H        6.81100000       3.48900000       8.51500000
H        3.57500000       4.04800000       9.69100000
15
Lattice="15.934 0.0 0.0 0.0 15.934 0.0 0.0 0.0 15.934" Properties=species:S:1:pos:R:3 Time=0.0 energy=1.0 pbc="T T T"
O        4.29000000       3.87100000       9.14000000
C        5.22900000       4.85700000       8.99600000
C        4.85100000       6.24200000       9.11200000
H        3.84800000       6.57700000       9.52600000
C        5.76300000       7.22300000       8.80200000
H        5.45900000       8.25400000       8.88800000
C        7.05400000       6.93300000       8.29500000
N        7.96700000       7.96700000       7.96700000
H        7.81600000       8.81200000       8.59300000
H        7.79800000       8.11500000       6.95800000
C        7.41300000       5.59400000       8.29100000
H        8.40200000       5.26300000       7.87800000
C        6.57200000       4.55700000       8.64300000
H        7.04100000       3.56700000       8.35400000
H        3.33300000       4.28300000       9.37400000
15
Lattice="15.934 0.0 0.0 0.0 15.934 0.0 0.0 0.0 15.934" Properties=species:S:1:pos:R:3 Time=0.0 energy=1.0 pbc="T T T"
O        4.24100000       3.89600000       9.29300000
C        5.09000000       4.91700000       8.89900000
C        4.78900000       6.23700000       9.21400000
H        3.74000000       6.54000000       9.47900000
C        5.63800000       7.31400000       8.84100000
H        5.28900000       8.29700000       9.08500000
C        6.89600000       7.01600000       8.35700000
N        7.96700000       7.96700000       7.96700000
H        7.87800000       8.95300000       8.20900000
H        8.00300000       7.94200000       6.93600000
C        7.19700000       5.62800000       8.10200000
H        8.21800000       5.24000000       7.91500000
C        6.28100000       4.58100000       8.28400000
H        6.57900000       3.51200000       8.04100000
H        3.29000000       4.07700000       9.02400000
15
Lattice="15.934 0.0 0.0 0.0 15.934 0.0 0.0 0.0 15.934" Properties=species:S:1:pos:R:3 Time=0.0 energy=1.0 pbc="T T T"
O        4.24900000       3.90200000       9.29600000
C        5.09700000       4.91800000       8.90500000
C        4.79000000       6.24500000       9.21900000
H        3.76400000       6.55200000       9.47800000
C        5.63600000       7.31400000       8.84400000
H        5.29700000       8.30400000       9.07700000
C        6.89900000       7.01000000       8.35800000
N        7.96700000       7.96700000       7.96700000
H        7.88300000       8.96600000       8.21300000
H        7.99700000       7.96000000       6.94300000
C        7.20100000       5.63400000       8.09000000
H        8.19500000       5.23700000       7.90800000
C        6.28300000       4.58400000       8.28300000
H        6.59200000       3.53400000       8.04400000
H        3.28700000       4.08100000       9.03200000
15
Lattice="15.934 0.0 0.0 0.0 15.934 0.0 0.0 0.0 15.934" Properties=species:S:1:pos:R:3 Time=0.0 energy=1.0 pbc="T T T"
O        4.40300000       3.93100000       9.57900000
C        5.26000000       4.96500000       9.22500000
C        5.17600000       6.23400000       9.70100000
H        4.34300000       6.49300000      10.43400000
C        6.05500000       7.22000000       9.30400000
H        5.92900000       8.22900000       9.73400000
C        7.00300000       7.00300000       8.34000000
N        7.96700000       7.96700000       7.96700000
H        7.78100000       8.88200000       8.44600000
H        7.94600000       8.08000000       6.92200000
C        7.15400000       5.66600000       7.87100000
H        7.92600000       5.37100000       7.10300000
C        6.29300000       4.63100000       8.32800000
H        6.45200000       3.54500000       8.07600000
H        3.38000000       4.18900000       9.66300000
15
Lattice="15.934 0.0 0.0 0.0 15.934 0.0 0.0 0.0 15.934" Properties=species:S:1:pos:R:3 Time=0.0 energy=1.0 pbc="T T T"
O        4.60700000       3.93700000      10.07200000
C        5.28100000       5.05300000       9.44300000
C        5.00100000       6.40700000       9.76800000
H        4.11600000       6.68500000      10.38300000
C        5.86300000       7.38700000       9.22900000
H        5.73600000       8.44400000       9.40100000
C        6.94300000       7.04000000       8.37600000
N        7.96700000       7.96700000       7.96700000
H        7.82500000       8.90200000       8.39000000
H        8.06600000       7.91400000       6.91100000
C        7.20700000       5.72200000       8.10100000
H        7.93300000       5.48000000       7.38400000
C        6.33800000       4.69000000       8.57700000
H        6.35800000       3.67200000       8.27200000
H        3.69200000       3.76000000       9.65100000
15
Lattice="15.934 0.0 0.0 0.0 15.934 0.0 0.0 0.0 15.934" Properties=species:S:1:pos:R:3 Time=0.0 energy=1.0 pbc="T T T"
O        4.58000000       4.05200000      10.03600000
C        5.22400000       5.11800000       9.43000000
C        4.96300000       6.47700000       9.63900000
H        4.25000000       6.68600000      10.47600000
C        5.85700000       7.46900000       9.13600000
H        5.73600000       8.58400000       9.31000000
C        6.94400000       7.08700000       8.37800000
N        7.96700000       7.96700000       7.96700000
H        7.80700000       8.95600000       8.23500000
H        7.92200000       7.97800000       6.93200000
C        7.17700000       5.71000000       8.05800000
H        7.95600000       5.49900000       7.29600000
C        6.25400000       4.80100000       8.51400000
H        6.36900000       3.77900000       8.14600000
H        3.63400000       3.96500000       9.55200000
15
Lattice="15.934 0.0 0.0 0.0 15.934 0.0 0.0 0.0 15.934" Properties=species:S:1:pos:R:3 Time=0.0 energy=1.0 pbc="T T T"
O        4.54000000       3.99000000      10.13900000
C        5.32000000       4.97600000       9.49800000
C        5.09400000       6.36100000       9.70100000
H        4.26300000       6.56700000      10.40600000
C        5.99500000       7.28400000       9.26400000
H        5.85500000       8.38600000       9.49100000
C        7.01000000       6.95200000       8.38200000
N        7.96700000       7.96700000       7.96700000
H        7.55800000       8.88800000       8.20000000
H        8.12200000       7.93200000       6.93800000
C        7.25400000       5.59300000       8.09200000
H        8.00600000       5.29000000       7.31300000
C        6.35800000       4.64200000       8.59800000
H        6.48700000       3.60300000       8.24500000
H        3.61600000       3.96100000       9.61400000
15
Lattice="15.934 0.0 0.0 0.0 15.934 0.0 0.0 0.0 15.934" Properties=species:S:1:pos:R:3 Time=0.0 energy=1.0 pbc="T T T"
O        4.44400000       4.00500000       9.97400000
C        5.33100000       4.93200000       9.48800000
C        5.08800000       6.27600000       9.78800000
H        4.21400000       6.50900000      10.42400000
C        5.91100000       7.23400000       9.24500000
H        5.64300000       8.32300000       9.46400000
C        6.94100000       6.97700000       8.33200000
N        7.96700000       7.96700000       7.96700000
H        7.68900000       8.90700000       8.26700000
H        8.15700000       7.94200000       6.98700000
C        7.25600000       5.62100000       8.24500000
H        7.93200000       5.33000000       7.48600000
C        6.47200000       4.55500000       8.80600000
H        6.66400000       3.54700000       8.53700000
H        3.47000000       4.34000000       9.87700000
15
Lattice="15.934 0.0 0.0 0.0 15.934 0.0 0.0 0.0 15.934" Properties=species:S:1:pos:R:3 Time=0.0 energy=1.0 pbc="T T T"
O        4.40700000       4.17200000      10.19900000
C        5.12900000       5.15500000       9.46300000
C        4.97700000       6.53400000       9.79800000
H        4.12500000       6.83100000      10.43700000
C        5.93200000       7.44000000       9.29600000
H        5.87700000       8.49100000       9.76600000
C        7.06400000       7.00600000       8.49700000
N        7.96700000       7.96700000       7.96700000
H        7.59100000       8.92100000       8.06600000
H        8.04800000       7.88000000       6.97600000
C        7.14300000       5.60600000       8.17200000
H        7.89100000       5.21400000       7.53100000
C        6.21600000       4.70900000       8.71100000
H        6.15400000       3.74100000       8.31300000
H        3.41800000       4.32100000      10.04000000
15
Lattice="15.934 0.0 0.0 0.0 15.934 0.0 0.0 0.0 15.934" Properties=species:S:1:pos:R:3 Time=0.0 energy=1.0 pbc="T T T"
O        4.18200000       4.28700000      10.00900000
C        5.10800000       5.12100000       9.40800000
C        4.97500000       6.51900000       9.59900000
H        4.20700000       6.93400000      10.24000000
C        5.91700000       7.43900000       9.20200000
H        5.88200000       8.46700000       9.37700000
C        6.96700000       7.03300000       8.34800000
N        7.96700000       7.96700000       7.96700000
H        7.76200000       8.93200000       8.28900000
H        7.92000000       8.01100000       6.86200000
C        6.98800000       5.69100000       7.98700000
H        7.85600000       5.41500000       7.32400000
C        6.05900000       4.76200000       8.47500000
H        6.43600000       3.69800000       8.39100000
H        3.20300000       4.49700000       9.68900000
15
Lattice="15.934 0.0 0.0 0.0 15.934 0.0 0.0 0.0 15.934" Properties=species:S:1:pos:R:3 Time=0.0 energy=1.0 pbc="T T T"
O        4.77500000       3.73000000       9.84000000
C        5.37000000       4.80000000       9.29300000
C        5.10500000       6.13400000       9.64200000
H        4.21500000       6.32600000      10.19600000
C        5.95900000       7.15900000       9.23700000
H        5.76300000       8.21300000       9.45600000
C        7.04300000       6.99300000       8.46300000
N        7.96700000       7.96700000       7.96700000
H        7.63700000       8.96800000       8.09300000
H        8.20800000       7.71600000       6.92000000
C        7.28100000       5.68000000       8.03600000
H        8.10500000       5.41500000       7.27600000
C        6.48700000       4.57900000       8.40400000
H        6.75200000       3.53000000       8.19300000
H        3.78500000       3.77700000       9.78800000
15
Lattice="15.934 0.0 0.0 0.0 15.934 0.0 0.0 0.0 15.934" Properties=species:S:1:pos:R:3 Time=0.0 energy=1.0 pbc="T T T"
O        4.89200000       3.71500000       9.94700000
C        5.65000000       4.81800000       9.39600000
C        5.69400000       6.03700000      10.07600000
H        4.93300000       6.25800000      10.84000000
C        6.47500000       7.05900000       9.60700000
H        6.58200000       8.06600000      10.01100000
C        7.27300000       6.89200000       8.42500000
N        7.96700000       7.96700000       7.96700000
H        7.85200000       8.94600000       8.21800000
H        8.10600000       7.90300000       6.96300000
C        7.22400000       5.68600000       7.74100000
H        7.91600000       5.61500000       6.89200000
C        6.39600000       4.64200000       8.24500000
H        6.37200000       3.65500000       7.69300000
H        3.91500000       3.92000000       9.65400000
15
Lattice="15.934 0.0 0.0 0.0 15.934 0.0 0.0 0.0 15.934" Properties=species:S:1:pos:R:3 Time=0.0 energy=1.0 pbc="T T T"
O        4.48600000       3.92500000       9.57600000
C        5.29500000       4.89700000       9.01900000
C        4.90400000       6.26900000       8.99500000
H        3.91200000       6.50700000       9.32600000
C        5.77300000       7.22200000       8.52600000
H        5.49800000       8.26500000       8.58100000
C        7.07100000       6.91200000       8.04000000
N        7.96700000       7.96700000       7.96700000
H        7.67600000       8.86100000       8.43100000
H        8.09500000       8.19600000       6.98700000
C        7.35400000       5.50900000       7.84100000
H        8.34500000       5.18700000       7.42900000
C        6.46800000       4.51800000       8.33300000
H        6.72100000       3.48200000       8.39700000
H        3.51400000       4.30500000       9.55400000
15
Lattice="15.934 0.0 0.0 0.0 15.934 0.0 0.0 0.0 15.934" Properties=species:S:1:pos:R:3 Time=0.0 energy=1.0 pbc="T T T"
O        4.23300000       3.79300000       8.38100000
C        5.17600000       4.76600000       8.33100000
C        4.83000000       6.08800000       8.75900000
H        3.91700000       6.28700000       9.27400000
C        5.73000000       7.12800000       8.63700000
H        5.44800000       8.03100000       9.20300000
C        6.98500000       6.95300000       8.03500000
N        7.96700000       7.96700000       7.96700000
H        7.35400000       8.75800000       8.26100000
H        8.28000000       8.20600000       6.98800000
C        7.30500000       5.69200000       7.62000000
H        8.33800000       5.53000000       7.26400000
C        6.44900000       4.60900000       7.81400000
H        6.68200000       3.60200000       7.51900000
H        3.30700000       4.16300000       8.52300000
15
Lattice="15.934 0.0 0.0 0.0 15.934 0.0 0.0 0.0 15.934" Properties=species:S:1:pos:R:3 Time=0.0 energy=1.0 pbc="T T T"
O        4.27800000       3.69400000       8.41000000
C        5.12700000       4.82800000       8.29800000
C        4.86300000       6.07900000       8.76900000
H        3.83600000       6.36500000       9.10100000
C        5.76200000       7.15100000       8.74100000
H        5.47700000       8.18200000       8.98800000
C        7.02100000       6.90100000       8.18300000
N        7.96700000       7.96700000       7.96700000
H        7.42000000       8.75600000       8.39800000
H        8.21400000       8.15100000       6.96300000
C        7.31400000       5.61500000       7.75600000
H        8.27000000       5.56600000       7.27600000
C        6.34400000       4.61700000       7.69200000
H        6.51800000       3.62200000       7.24000000
H        3.33700000       4.06100000       8.61800000
15
Lattice="15.934 0.0 0.0 0.0 15.934 0.0 0.0 0.0 15.934" Properties=species:S:1:pos:R:3 Time=0.0 energy=1.0 pbc="T T T"
O        4.25600000       3.81300000       8.42500000