14
Lattice="15.917 0.0 0.0 0.0 15.917 0.0 0.0 0.0 15.917" Properties=species:S:1:pos:R:3 Time=0.0 energy=1.0 pbc="T T T"
H       15.03100000      12.49300000      12.65100000
C       15.10500000      13.17500000      13.45900000
C       13.96400000      13.39900000      14.20300000
H       13.09800000      12.76000000      14.08300000
C       13.94900000      14.37900000      15.22100000
H       13.13000000      14.36900000      15.88700000
C       15.06000000      15.16400000      15.49100000
N       15.09500000      16.05800000      16.62200000
H       15.96800000      16.61700000      16.50400000
H       14.29100000      16.70300000      16.76100000
C       16.25200000      14.89300000      14.75800000
H       17.17400000      15.38400000      15.04600000
C       16.24400000      13.95200000      13.68100000
H       17.21400000      13.85300000      13.09700000
14
Lattice="15.917 0.0 0.0 0.0 15.917 0.0 0.0 0.0 15.917" Properties=species:S:1:pos:R:3 Time=0.0 energy=1.0 pbc="T T T"
H       14.58400000      12.52000000      12.74700000
C       14.58700000      13.29000000      13.52400000
C       13.45400000      13.69200000      14.25300000
H       12.55700000      13.11100000      14.20400000
C       13.57600000      14.67800000      15.24500000
H       12.67400000      14.89500000      15.87000000
C       14.78200000      15.37300000      15.37500000
N       15.01200000      16.37800000      16.47100000
H       15.85300000      16.90500000      16.16200000
H       14.29400000      17.11600000      16.29700000
C       15.92100000      15.03600000      14.61200000
H       16.85000000      15.66000000      14.67800000
C       15.78700000      13.98400000      13.66200000
H       16.59800000      13.69000000      13.05800000
14
Lattice="15.917 0.0 0.0 0.0 15.917 0.0 0.0 0.0 15.917" Properties=species:S:1:pos:R:3 Time=0.0 energy=1.0 pbc="T T T"
H       14.83900000      12.35400000      12.72200000
C       14.78200000      13.17700000      13.46100000
C       13.62700000      13.56100000      14.16800000
H       12.71500000      13.03500000      14.18700000
C       13.73000000      14.70600000      14.97400000
H       12.80700000      14.90700000      15.52500000
C       14.85000000      15.52500000      15.11500000
N       14.70200000      16.52600000      16.05100000
H       15.44700000      17.22800000      15.97600000
H       13.74500000      16.90900000      16.11200000
C       15.95800000      15.15400000      14.32800000
H       16.87100000      15.80300000      14.31500000
C       15.92800000      14.01700000      13.53900000
H       16.69600000      13.78100000      12.83500000
14
Lattice="15.917 0.0 0.0 0.0 15.917 0.0 0.0 0.0 15.917" Properties=species:S:1:pos:R:3 Time=0.0 energy=1.0 pbc="T T T"
H       15.12300000      12.31700000      12.67500000
C       15.05200000      13.10300000      13.41200000
C       13.86000000      13.17500000      14.14500000
H       13.11700000      12.30100000      14.15500000
C       13.72500000      14.18400000      15.10700000
H       12.74700000      14.32400000      15.61400000
C       14.68900000      15.19200000      15.35300000
N       14.67500000      16.07600000      16.53300000
H       15.02800000      16.94800000      16.09900000
H       13.66600000      16.19500000      16.66700000
C       15.74000000      15.21500000      14.46300000
H       16.56500000      15.89200000      14.55000000
C       15.97600000      14.16000000      13.51900000
H       17.01700000      14.11700000      13.08400000
14
Lattice="15.917 0.0 0.0 0.0 15.917 0.0 0.0 0.0 15.917" Properties=species:S:1:pos:R:3 Time=0.0 energy=1.0 pbc="T T T"
H       15.45400000      12.81400000      12.12500000
C       15.31000000      13.44100000      13.02900000
C       14.09700000      13.25900000      13.76800000
H       13.42300000      12.41600000      13.42500000
C       13.83600000      14.09800000      14.85900000
H       12.91600000      13.91400000      15.45700000
C       14.64800000      15.16000000      15.22600000
N       14.48500000      15.80000000      16.43100000
H       14.88400000      16.73300000      16.47300000
H       13.58800000      15.63100000      16.89800000
C       15.83800000      15.31800000      14.44700000
H       16.53500000      16.15700000      14.70300000
C       16.12700000      14.53700000      13.30900000
H       17.04300000      14.77900000      12.75600000
14
Lattice="15.917 0.0 0.0 0.0 15.917 0.0 0.0 0.0 15.917" Properties=species:S:1:pos:R:3 Time=0.0 energy=1.0 pbc="T T T"
H       15.69200000      13.34700000      11.87300000
C       15.38600000      13.84400000      12.83800000
C       14.20400000      13.58700000      13.48300000
H       13.70400000      12.66100000      13.30300000
C       13.86900000      14.28500000      14.68500000
H       13.00800000      13.95600000      15.30700000
C       14.84800000      15.20400000      15.22500000
N       14.55900000      15.87700000      16.49900000
H       15.25500000      16.65800000      16.54900000
H       13.61100000      16.33100000      16.47700000
C       15.99500000      15.49800000      14.46200000
H       16.73200000      16.26000000      14.85100000
C       16.28900000      14.78700000      13.31500000
H       17.24200000      14.92500000      12.78400000
14
Lattice="15.917 0.0 0.0 0.0 15.917 0.0 0.0 0.0 15.917" Properties=species:S:1:pos:R:3 Time=0.0 energy=1.0 pbc="T T T"
H       15.44200000      13.53000000      12.09600000
C       15.38600000      14.13300000      13.03700000
C       14.15200000      14.27300000      13.65100000
H       13.25300000      13.83500000      13.23500000
C       14.02700000      15.04800000      14.81400000
H       13.06200000      15.10900000      15.25500000
C       15.19900000      15.49300000      15.50600000
N       15.04000000      16.05700000      16.79600000
H       15.73300000      16.80500000      17.06400000
H       14.10500000      16.51300000      16.86400000
C       16.40900000      15.51500000      14.82200000
H       17.14700000      16.14100000      15.23800000
C       16.51400000      14.76200000      13.63200000
H       17.52500000      14.70800000      13.11800000
14
Lattice="15.917 0.0 0.0 0.0 15.917 0.0 0.0 0.0 15.917" Properties=species:S:1:pos:R:3 Time=0.0 energy=1.0 pbc="T T T"
H       15.58900000      13.79500000      12.07700000
C       15.37400000      14.29700000      13.04700000
C       14.11500000      14.51300000      13.62000000
H       13.24000000      14.22100000      12.98600000
C       13.92800000      15.14300000      14.83400000
H       12.96400000      15.55600000      15.03000000
C       15.09100000      15.68400000      15.48400000
N       14.87900000      16.24200000      16.78100000
H       15.68800000      16.86800000      17.08100000
H       13.97900000      16.75800000      16.85500000
C       16.38300000      15.39300000      14.99000000
H       17.26100000      15.84600000      15.40600000
C       16.52000000      14.75900000      13.74400000
H       17.54300000      14.53600000      13.43100000
14
Lattice="15.917 0.0 0.0 0.0 15.917 0.0 0.0 0.0 15.917" Properties=species:S:1:pos:R:3 Time=0.0 energy=1.0 pbc="T T T"
H       15.59200000      13.69700000      12.16900000
C       15.37100000      14.23300000      13.10600000
C       14.09300000      14.62700000      13.51600000
H       13.22400000      14.15000000      12.98100000
C       13.90800000      15.34100000      14.73000000
H       12.93300000      15.32400000      15.24100000
C       15.02100000      15.65300000      15.50700000
N       14.83500000      16.24200000      16.77600000
H       15.49300000      17.04100000      16.98200000
H       13.85500000      16.51600000      17.00100000
C       16.35200000      15.49400000      14.96800000
H       17.25500000      15.69100000      15.56400000
C       16.46400000      14.72000000      13.80600000
H       17.44600000      14.62800000      13.41400000
14
Lattice="15.917 0.0 0.0 0.0 15.917 0.0 0.0 0.0 15.917" Properties=species:S:1:pos:R:3 Time=0.0 energy=1.0 pbc="T T T"
H       15.49300000      13.54200000      12.28700000
C       15.39000000      14.14200000      13.22200000
C       14.06200000      14.21900000      13.63600000
H       13.24500000      13.72000000      13.12700000
C       13.69400000      15.04400000      14.70200000
H       12.71600000      15.14800000      15.08500000
C       14.69700000      15.77300000      15.38000000
N       14.47500000      16.41200000      16.61400000
H       14.90800000      17.35900000      16.66000000
H       13.47600000      16.63400000      16.67400000
C       16.05400000      15.69500000      14.96700000
H       16.72500000      16.33500000      15.52100000
C       16.39300000      14.92100000      13.83000000
H       17.42400000      14.84300000      13.40500000
14
Lattice="15.917 0.0 0.0 0.0 15.917 0.0 0.0 0.0 15.917" Properties=species:S:1:pos:R:3 Time=0.0 energy=1.0 pbc="T T T"
H       15.79300000      13.49600000      12.39000000
C       15.39300000      14.09200000      13.19200000
C       14.09000000      14.13900000      13.70200000
H       13.36700000      13.49100000      13.18900000
C       13.71200000      15.00700000      14.71400000
H       12.65800000      14.97800000      15.06700000
C       14.72400000      15.77600000      15.38800000
N       14.42200000      16.38700000      16.60100000
H       14.91000000      17.21500000      16.89000000
H       13.49300000      16.38500000      17.01700000
C       16.03100000      15.72500000      14.87300000
H       16.80500000      16.36300000      15.21400000
C       16.36300000      14.86700000      13.84000000
H       17.38800000      15.08400000      13.39700000
14
Lattice="15.917 0.0 0.0 0.0 15.917 0.0 0.0 0.0 15.917" Properties=species:S:1:pos:R:3 Time=0.0 energy=1.0 pbc="T T T"
H       15.76700000      13.53200000      12.27900000
C       15.45800000      14.12800000      13.09900000
C       14.30000000      13.71900000      13.86700000
H       13.53100000      13.06600000      13.40700000
C       13.93800000      14.41700000      15.03800000
H       12.92200000      14.23900000      15.52600000
C       14.72800000      15.44700000      15.58200000
N       14.45300000      16.17500000      16.76200000
H       14.71400000      17.16400000      16.65800000
H       13.47200000      16.10500000      17.07400000
C       15.97400000      15.69100000      14.93000000
H       16.76300000      16.35800000      15.30400000
C       16.29100000      15.04300000      13.70200000
H       17.32800000      15.18900000      13.30200000
14
Lattice="15.917 0.0 0.0 0.0 15.917 0.0 0.0 0.0 15.917" Properties=species:S:1:pos:R:3 Time=0.0 energy=1.0 pbc="T T T"
H       15.81700000      13.63700000      12.24900000
C       15.44000000      14.11100000      13.20000000
C       14.49500000      13.53300000      14.03800000
H       13.80200000      12.90000000      13.52100000
C       14.16100000      14.10200000      15.25100000
H       13.24100000      13.88600000      15.73900000
C       14.90100000      15.28200000      15.66500000
N       14.45400000      15.87900000      16.89600000
H       14.44400000      16.91400000      16.75200000
H       13.45900000      15.56500000      17.02000000
C       15.98100000      15.72000000      14.90900000
H       16.61600000      16.60000000      15.18500000
C       16.25600000      15.09100000      13.69800000
H       17.10700000      15.46100000      13.19400000
14
Lattice="15.917 0.0 0.0 0.0 15.917 0.0 0.0 0.0 15.917" Properties=species:S:1:pos:R:3 Time=0.0 energy=1.0 pbc="T T T"
H       16.02800000      13.53300000      12.52100000
C       15.77500000      13.91500000      13.46500000
C       15.15300000      13.04700000      14.40200000
H       14.92100000      12.00800000      14.04600000
C       14.66300000      13.56000000      15.58500000
H       14.19300000      12.88400000      16.37100000
C       14.81600000      14.93400000      15.85300000
N       14.35900000      15.39400000      17.05800000
H       14.16200000      16.40400000      17.14100000
H       13.40200000      14.96800000      17.17600000
C       15.68200000      15.72900000      15.07000000
H       15.86200000      16.77100000      15.19900000
C       16.18200000      15.14300000      13.88600000
H       16.77800000      15.82900000      13.20200000
14
Lattice="15.917 0.0 0.0 0.0 15.917 0.0 0.0 0.0 15.917" Properties=species:S:1:pos:R:3 Time=0.0 energy=1.0 pbc="T T T"
H       17.49000000      13.07200000      13.51700000
C       16.70700000      13.45800000      14.11100000
C       15.73500000      12.64000000      14.63800000
H       15.94000000      11.55200000      14.62800000
C       14.66400000      13.14100000      15.42100000
H       14.14300000      12.35800000      16.04900000
C       14.55100000      14.56800000      15.65000000
N       13.64100000      15.10900000      16.59900000
H       13.21700000      16.00900000      16.37600000
H       12.91400000      14.43200000      16.75900000
C       15.48300000      15.33500000      14.99700000
H       15.56500000      16.42500000      15.05300000
C       16.50800000      14.85000000      14.27300000
H       17.29300000      15.52600000      13.78400000
14
Lattice="15.917 0.0 0.0 0.0 15.917 0.0 0.0 0.0 15.917" Properties=species:S:1:pos:R:3 Time=0.0 energy=1.0 pbc="T T T"
H       16.82000000      12.19400000      12.49600000
C       16.19500000      12.77900000      13.24200000
C       15.21000000      12.17800000      13.92800000
H       15.03900000      11.09700000      13.89300000
C       14.48400000      12.91200000      14.90200000
H       13.79600000      12.35000000      15.53300000
C       14.70700000      14.32500000      15.17200000
N       13.90500000      15.00000000      16.10400000
H       13.52900000      15.92500000      15.79800000
H       13.11200000      14.31600000      16.15900000
C       15.81000000      14.84300000      14.50100000
H       16.07100000      15.90200000      14.49000000
C       16.54800000      14.11700000      13.59900000
H       17.37600000      14.59600000      13.12700000
14
Lattice="15.917 0.0 0.0 0.0 15.917 0.0 0.0 0.0 15.917" Properties=species:S:1:pos:R:3 Time=0.0 energy=1.0 pbc="T T T"
H       14.96200000      12.68400000      12.43400000
C       14.65100000      13.15100000      13.37200000
C       14.37300000      12.46800000      14.58800000
H       14.39200000      11.35300000      14.51700000
C       14.13400000      13.21000000      15.79000000
H       13.73800000      12.69300000      16.72200000
C       14.42400000      14.56200000      15.85500000
N       14.36900000      15.26600000      17.09800000
H       14.39100000      16.27400000      16.98000000
H       13.51100000      15.01200000      17.62300000
C       14.73800000      15.26900000      14.69300000
H       14.91300000      16.32900000      14.67400000
C       14.83300000      14.55900000      13.46400000
H       15.10900000      15.21700000      12.55100000
14
Lattice="15.917 0.0 0.0 0.0 15.917 0.0 0.0 0.0 15.917" Properties=species:S:1:pos:R:3 Time=0.0 energy=1.0 pbc="T T T"
H       15.27500000      12.25900000      12.54900000
C       14.99300000      12.88100000      13.39800000
C       14.27500000      12.27900000      14.40400000
H       14.05900000      11.22400000      14.25200000
C       13.85700000      13.06600000      15.46200000
H       13.27300000      12.52100000      16.15300000
C       14.15600000      14.43100000      15.53500000
N       13.78500000      15.18100000      16.69700000
H       13.71300000      16.20000000      16.59200000
H       12.82800000      14.99100000      17.15500000
C       15.01300000      14.97400000      14.59500000
H       15.34400000      16.03200000      14.66200000
C       15.31200000      14.26100000      13.42100000
H       15.86500000      14.62300000      12.59600000
14
Lattice="15.917 0.0 0.0 0.0 15.917 0.0 0.0 0.0 15.917" Properties=species:S:1:pos:R:3 Time=0.0 energy=1.0 pbc="T T T"
H       16.13200000      12.22800000      12.36900000
C       15.67400000      12.88600000      13.13600000
C       14.58800000      12.37100000      13.85900000
H       14.23900000      11.38300000      13.48700000
C       13.95200000      12.96000000      14.97200000
H       13.05600000      12.42700000      15.25700000
C       14.52900000      14.17800000      15.45600000
N       13.99100000      14.88500000      16.53500000
H       13.97400000      15.87900000      16.37700000
H       13.02600000      14.55300000      16.83500000
C       15.68200000      14.66500000      14.87400000
H       16.19900000      15.57100000      15.33800000
C       16.22300000      14.08600000      13.71500000
H       17.08800000      14.54000000      13.21600000
14
Lattice="15.917 0.0 0.0 0.0 15.917 0.0 0.0 0.0 15.917" Properties=species:S:1:pos:R:3 Time=0.0 energy=1.0 pbc="T T T"
H       18.57300000      14.48100000      12.26500000
C       17.70300000      14.46500000      12.91700000
C       16.90600000      13.36200000      13.12300000
H       17.19900000      12.49700000      12.53300000
C       15.78400000      13.40700000      13.98300000
H       15.22900000      12.44300000      14.11000000
C       15.51800000      14.62800000      14.68800000
N       14.43400000      14.78900000      15.60800000
H       14.04100000      15.78300000      15.43300000
H       13.69900000      14.11900000      15.42100000
C       16.36700000      15.70200000      14.49100000
H       16.19300000      16.68700000      14.97100000
C       17.50200000      15.57600000      13.70000000
H       18.11100000      16.47900000      13.71500000
14
Lattice="15.917 0.0 0.0 0.0 15.917 0.0 0.0 0.0 15.917" Properties=species:S:1:pos:R:3 Time=0.0 energy=1.0 pbc="T T T"
H       18.41400000      13.82600000      12.30400000
C       17.60900000      14.03000000      13.03100000
C       16.68700000      13.02000000      13.38000000
H       16.62100000      11.96600000      13.17900000
C       15.67400000      13.33600000      14.25000000
H       14.88900000      12.57400000      14.48100000
C       15.44000000      14.60400000      14.75700000
N       14.37500000      14.94900000      15.68300000
H       14.34500000      15.98500000      15.79500000
H       13.40400000      14.64500000      15.31600000
C       16.33200000      15.61300000      14.35600000
H       16.00900000      16.58100000      14.72400000
C       17.41600000      15.36900000      13.52100000
H       18.16800000      16.15100000      13.26500000
14
Lattice="15.917 0.0 0.0 0.0 15.917 0.0 0.0 0.0 15.917" Properties=species:S:1:pos:R:3 Time=0.0 energy=1.0 pbc="T T T"
H       17.14700000      12.73000000      12.81500000
C       16.45500000      13.17700000      13.49500000
C       15.49500000      12.35500000      14.10800000
H       15.31100000      11.28500000      13.93200000
C       14.50100000      12.98400000      14.96000000
H       13.80600000      12.45300000      15.54200000
C       14.51400000      14.32500000      15.21700000
N       13.59800000      14.93500000      16.20300000
H       13.24700000      15.81500000      15.78700000
H       12.77200000      14.36000000      16.23400000
C       15.55800000      15.05300000      14.74600000
H       15.61600000      16.12000000      15.09500000
C       16.56900000      14.51000000      13.83800000
H       17.28700000      15.07300000      13.25600000
14
Lattice="15.917 0.0 0.0 0.0 15.917 0.0 0.0 0.0 15.917" Properties=species:S:1:pos:R:3 Time=0.0 energy=1.0 pbc="T T T"
H       16.90500000      13.30700000      12.22700000
C       16.34300000      13.70200000      13.06400000
C       15.28300000      12.98600000      13.67800000
H       14.95800000      11.98100000      13.29000000
C       14.56700000      13.56100000      14.71000000
H       13.57200000      12.92500000      14.91100000
C       14.91100000      14.88000000      15.19100000
N       14.32300000      15.26300000      16.42100000
H       14.08500000      16.25400000      16.27200000
H       13.38500000      14.78900000      16.53700000
C       15.92000000      15.63300000      14.54600000
H       16.24300000      16.57800000      14.85400000
C       16.64000000      15.00700000      13.50300000
H       17.42100000      15.54600000      12.95400000
14
Lattice="15.917 0.0 0.0 0.0 15.917 0.0 0.0 0.0 15.917" Properties=species:S:1:pos:R:3 Time=0.0 energy=1.0 pbc="T T T"
H       17.14400000      13.36600000      12.41900000
C       16.63000000      13.82000000      13.29900000
C       15.44800000      13.24100000      13.76600000
H       15.14700000      12.36900000      13.20000000
C       14.75500000      13.75900000      14.88100000
H       13.84700000      13.28300000      15.29300000
C       15.32700000      14.84300000      15.58600000
N       14.80600000      15.28000000      16.78400000
H       14.65000000      16.28200000      16.89600000
H       13.94200000      14.82800000      17.05800000
C       16.46400000      15.49700000      15.03700000
H       16.89400000      16.26300000      15.70600000
C       17.17700000      14.96900000      13.96200000
H       18.17000000      15.16900000      13.63300000
14
Lattice="15.917 0.0 0.0 0.0 15.917 0.0 0.0 0.0 15.917" Properties=species:S:1:pos:R:3 Time=0.0 energy=1.0 pbc="T T T"
H       17.16700000      13.37000000      12.42500000
C       16.62400000      13.81800000      13.30600000
C       15.44300000      13.24200000      13.76800000
H       15.15300000      12.36800000      13.17100000
C       14.75800000      13.75700000      14.88500000
H       13.87200000      13.30900000      15.29000000
C       15.33100000      14.84200000      15.58300000
N       14.80900000      15.27900000      16.79500000
H       14.65700000      16.26800000      16.90000000
H       13.93200000      14.83000000      17.06400000
C       16.46700000      15.49700000      15.04100000
H       16.87500000      16.25100000      15.71500000
C       17.18200000      14.96300000      13.96200000
H       18.16600000      15.19900000      13.63300000
14
Lattice="15.917 0.0 0.0 0.0 15.917 0.0 0.0 0.0 15.917" Properties=species:S:1:pos:R:3 Time=0.0 energy=1.0 pbc="T T T"
H       15.70100000      12.23200000      12.74300000
C       15.35500000      12.89500000      13.53600000
C       14.69700000      12.35600000      14.64100000
H       14.38900000      11.24500000      14.61400000
C       14.42600000      13.04000000      15.82200000
H       13.90000000      12.62200000      16.67600000
C       14.80700000      14.41000000      15.84900000
N       14.58800000      15.18300000      17.04600000
H       14.67800000      16.18900000      16.76400000
H       13.67200000      15.01500000      17.51600000
C       15.54700000      14.96500000      14.77000000
H       15.88400000      16.03300000      14.73800000
C       15.84200000      14.22600000      13.62400000
H       16.42700000      14.64200000      12.78300000
14
Lattice="15.917 0.0 0.0 0.0 15.917 0.0 0.0 0.0 15.917" Properties=species:S:1:pos:R:3 Time=0.0 energy=1.0 pbc="T T T"
H       16.17300000      13.13200000      12.35400000
C       15.84500000      13.41200000      13.39800000
C       15.17400000      12.58200000      14.27400000
H       14.94500000      11.59000000      13.93700000
C       14.71100000      13.12700000      15.52700000
H       14.23500000      12.39500000      16.21100000
C       14.87300000      14.44800000      15.80500000
N       14.35000000      15.04200000      16.99900000
H       14.13700000      15.99500000      16.74700000
H       13.56400000      14.53700000      17.40900000
C       15.56400000      15.28300000      14.92200000
H       15.78100000      16.39600000      15.14200000
C       16.04000000      14.74300000      13.72400000
H       16.53000000      15.49100000      13.06500000
14
Lattice="15.917 0.0 0.0 0.0 15.917 0.0 0.0 0.0 15.917" Properties=species:S:1:pos:R:3 Time=0.0 energy=1.0 pbc="T T T"
H       16.48200000      13.18600000      12.39000000
C       15.98600000      13.53100000      13.35600000
C       15.27600000      12.69700000      14.22900000
H       15.12800000      11.70600000      13.93600000
C       14.70900000      13.21200000      15.44700000
H       14.23300000      12.46300000      16.16700000
C       14.88000000      14.54700000      15.74200000
N       14.42400000      14.95100000      17.04500000
H       14.47400000      15.96200000      17.15300000
H       13.52300000      14.64200000      17.41700000
C       15.62500000      15.39700000      14.92400000
H       15.93000000      16.43300000      15.19500000
C       16.13900000      14.86000000      13.71100000
H       16.70400000      15.62600000      13.08800000
14
Lattice="15.917 0.0 0.0 0.0 15.917 0.0 0.0 0.0 15.917" Properties=species:S:1:pos:R:3 Time=0.0 energy=1.0 pbc="T T T"
H       16.45100000      13.30000000      12.44300000
C       16.01800000      13.60000000      13.36300000
C       15.30100000      12.72700000      14.17800000
H       15.28300000      11.60700000      13.92500000
C       14.74400000      13.25200000      15.37900000
H       14.26600000      12.44700000      15.93100000
C       14.90300000      14.58600000      15.74000000
N       14.58600000      15.05600000      17.07600000
H       14.17700000      15.98500000      17.04300000
H       13.81600000      14.46000000      17.41300000
C       15.64700000      15.41200000      14.92500000
H       15.80200000      16.39500000      15.32300000
C       16.26400000      14.91100000      13.73500000
H       16.93600000      15.57300000      13.20500000
14
Lattice="15.917 0.0 0.0 0.0 15.917 0.0 0.0 0.0 15.917" Properties=species:S:1:pos:R:3 Time=0.0 energy=1.0 pbc="T T T"
H       17.37200000      13.75800000      12.77100000
C       16.78700000      13.96600000      13.63700000
C       15.52200000      13.35000000      13.92900000
H       15.27500000      12.50400000      13.18300000
C       14.73200000      13.74600000      14.97200000
H       13.89300000      13.10300000      15.10800000
C       15.09300000      14.89900000      15.72200000
N       14.48700000      15.43400000      16.85600000
H       14.67600000      16.45700000      17.00300000
H       13.47900000      15.27900000      16.93300000
C       16.25700000      15.56800000      15.34200000
H       16.36700000      16.52900000      15.94500000
C       17.07000000      15.16100000      14.32300000
H       17.87600000      15.76400000      14.09800000
14
Lattice="15.917 0.0 0.0 0.0 15.917 0.0 0.0 0.0 15.917" Properties=species:S:1:pos:R:3 Time=0.0 energy=1.0 pbc="T T T"
H       17.20200000      13.97100000      12.19300000
C       16.77400000      14.30600000      13.12200000
C       15.43400000      14.09400000      13.32100000
H       14.87500000      13.47900000      12.53700000
C       14.69000000      14.48200000      14.51700000
H       13.61300000      14.18700000      14.68600000
C       15.49800000      15.21900000      15.42500000
N       15.05000000      15.59800000      16.75400000
H       15.55200000      16.52700000      16.90400000
H       14.05600000      15.85400000      16.73900000
C       16.79600000      15.53100000      15.18400000
H       17.25800000      16.22800000      15.95500000
C       17.49000000      15.10500000      14.03400000
H       18.45500000      15.48300000      13.81100000
14
Lattice="15.917 0.0 0.0 0.0 15.917 0.0 0.0 0.0 15.917" Properties=species:S:1:pos:R:3 Time=0.0 energy=1.0 pbc="T T T"
H       16.37000000      14.19500000      12.26200000
C       15.93800000      14.28400000      13.28400000
C       14.74500000      13.79600000      13.74200000
H       14.17400000      13.16300000      13.05500000
C       14.35900000      14.10700000      15.03200000
H       13.37500000      13.74200000      15.37300000
C       15.14900000      14.85700000      15.94700000
N       14.65100000      15.22100000      17.20900000
H       14.75400000      16.20500000      17.42200000
H       13.65300000      14.95100000      17.26500000
C       16.40300000      15.24800000      15.47500000
H       17.06900000      15.93900000      16.15300000
C       16.78000000      15.01500000      14.16200000
H       17.61000000      15.59700000      13.83800000
14
Lattice="15.917 0.0 0.0 0.0 15.917 0.0 0.0 0.0 15.917" Properties=species:S:1:pos:R:3 Time=0.0 energy=1.0 pbc="T T T"
H       16.13500000      14.17000000      12.25100000
C       15.93500000      14.31600000      13.29700000
C       14.73200000      13.76000000      13.79300000
H       14.13000000      13.14900000      13.08300000
C       14.30000000      14.08000000      15.08200000
H       13.31000000      13.61500000      15.42200000
C       15.11300000      14.82300000      15.92200000
N       14.66900000      15.20200000      17.22500000
H       14.75900000      16.22100000      17.35200000
H       13.76500000      14.88400000      17.43500000
C       16.38800000      15.24800000      15.48400000
H       16.99300000      15.78900000      16.20000000
C       16.73000000      15.03700000      14.15200000
H       17.64800000      15.49600000      13.77300000
14
Lattice="15.917 0.0 0.0 0.0 15.917 0.0 0.0 0.0 15.917" Properties=species:S:1:pos:R:3 Time=0.0 energy=1.0 pbc="T T T"
H       15.92100000      13.91700000      12.33400000
C       15.65600000      14.13600000      13.39200000
C       14.45200000      13.65900000      14.02000000
H       13.74300000      13.09700000      13.39300000
C       14.21600000      13.99500000      15.32800000
H       13.24300000      13.70300000      15.75500000
C       15.07300000      14.79700000      16.06600000
N       14.85800000      14.96900000      17.48500000
H       14.81600000      16.03200000      17.74600000
H       13.87000000      14.66700000      17.66100000
C       16.20500000      15.36800000      15.35100000
H       16.91300000      16.05200000      15.99200000
C       16.49800000      15.01900000      14.03600000
H       17.39500000      15.44000000      13.64100000
14
Lattice="15.917 0.0 0.0 0.0 15.917 0.0 0.0 0.0 15.917" Properties=species:S:1:pos:R:3 Time=0.0 energy=1.0 pbc="T T T"
H       15.30900000      13.34500000      12.53800000