16
Lattice="12.893 0.0 0.0 0.0 12.893 0.0 0.0 0.0 12.893" Properties=species:S:1:pos:R:3 Time=0.0 energy=1.0 pbc="T T T"
H        5.74200000       1.96900000       7.08100000
C        5.56200000       2.88700000       6.47000000
C        4.71600000       2.77100000       5.37900000
H        4.39300000       1.82300000       4.82500000
C        4.49200000       3.93000000       4.52900000
H        3.92400000       3.74200000       3.56500000
C        4.99800000       5.20500000       4.84100000
H        4.72600000       6.08100000       4.24100000
C        5.82700000       5.25300000       6.01000000
C        6.14200000       4.13600000       6.77700000
H        6.76400000       4.28800000       7.68700000
O        6.44700000       6.44700000       6.44700000
C        6.44300000       7.58900000       5.60200000
H        7.17000000       8.32300000       6.08200000
H        6.68000000       7.32300000       4.61600000
H        5.47600000       7.98700000       5.53900000
16
Lattice="12.893 0.0 0.0 0.0 12.893 0.0 0.0 0.0 12.893" Properties=species:S:1:pos:R:3 Time=0.0 energy=1.0 pbc="T T T"
H        4.57400000       2.45500000       5.35700000
C        4.42900000       3.53900000       5.38900000
C        3.27000000       4.10000000       4.81200000
H        2.43000000       3.46400000       4.46300000
C        3.17300000       5.51100000       4.85900000
H        2.23700000       6.10600000       4.74600000
C        4.24400000       6.34300000       5.38900000
H        4.09500000       7.45100000       5.38100000
C        5.39600000       5.70000000       5.92500000
C        5.44600000       4.33100000       5.94200000
H        6.40600000       3.94000000       6.20000000
O        6.44700000       6.44700000       6.44700000
C        6.20700000       7.82900000       6.65900000
H        7.08500000       8.10200000       7.21800000
H        6.13300000       8.43700000       5.68500000
H        5.34600000       7.97900000       7.44100000
16
Lattice="12.893 0.0 0.0 0.0 12.893 0.0 0.0 0.0 12.893" Properties=species:S:1:pos:R:3 Time=0.0 energy=1.0 pbc="T T T"
H        5.01400000       2.19900000       6.96600000
C        5.01100000       3.13400000       6.45000000
C        4.13700000       3.26200000       5.39600000
H        3.65400000       2.36100000       4.96100000
C        3.86700000       4.46000000       4.80100000
H        3.33300000       4.36900000       3.87800000
C        4.50000000       5.62300000       5.19100000
H        4.28900000       6.61900000       4.79300000
C        5.60100000       5.48600000       6.07900000
C        5.78500000       4.27300000       6.81100000
H        6.50600000       4.17500000       7.68400000
O        6.44700000       6.44700000       6.44700000
C        6.21600000       7.83200000       6.18800000
H        6.57100000       8.31600000       7.07200000
H        6.73800000       8.25600000       5.28300000
H        5.09700000       8.09400000       6.01000000
16
Lattice="12.893 0.0 0.0 0.0 12.893 0.0 0.0 0.0 12.893" Properties=species:S:1:pos:R:3 Time=0.0 energy=1.0 pbc="T T T"
H        6.53500000       2.01700000       6.46700000
C        6.07400000       2.89800000       5.95000000
C        5.26600000       2.79700000       4.77000000
H        4.96800000       1.76200000       4.31600000
C        4.71400000       3.95800000       4.21000000
H        4.10600000       3.90800000       3.25600000
C        5.10900000       5.22100000       4.66300000
H        4.97700000       6.03300000       3.94300000
C        5.86500000       5.30000000       5.83200000
C        6.28700000       4.11600000       6.49500000
H        6.97700000       4.22800000       7.39100000
O        6.44700000       6.44700000       6.44700000
C        6.19900000       7.70700000       5.83200000
H        6.47500000       8.43600000       6.56000000
H        6.87300000       7.78400000       4.94100000
H        5.18600000       7.86200000       5.56700000
16
Lattice="12.893 0.0 0.0 0.0 12.893 0.0 0.0 0.0 12.893" Properties=species:S:1:pos:R:3 Time=0.0 energy=1.0 pbc="T T T"
H        6.64300000       2.24300000       4.70800000
C        6.01800000       3.20800000       4.75000000
C        4.95000000       3.47400000       3.84900000
H        4.69100000       2.79300000       3.02900000
C        4.22900000       4.65400000       3.90400000
H        3.29700000       4.85000000       3.41300000
C        4.71200000       5.67300000       4.76400000
H        4.27100000       6.64400000       4.84100000
C        5.86800000       5.42700000       5.61200000
C        6.38900000       4.14500000       5.71600000
H        7.13300000       4.00100000       6.52700000
O        6.44700000       6.44700000       6.44700000
C        7.17900000       7.41700000       5.64600000
H        6.83000000       8.39300000       6.06600000
H        8.24800000       7.28400000       5.63900000
H        6.84100000       7.36700000       4.58200000
16
Lattice="12.893 0.0 0.0 0.0 12.893 0.0 0.0 0.0 12.893" Properties=species:S:1:pos:R:3 Time=0.0 energy=1.0 pbc="T T T"
H        6.73900000       1.86800000       5.81500000
C        6.11400000       2.79800000       5.72900000
C        4.95000000       2.81300000       4.91100000
H        4.67600000       1.90900000       4.36500000
C        4.22400000       3.99800000       4.84200000
H        3.41200000       3.92100000       4.16300000
C        4.67300000       5.23100000       5.35000000
H        4.05900000       6.16400000       5.17000000
C        5.86100000       5.22700000       6.08200000
C        6.54200000       3.99400000       6.38600000
H        7.37600000       3.91300000       7.02700000
O        6.44700000       6.44700000       6.44700000
C        7.39900000       6.29600000       7.49200000
H        7.04300000       5.82700000       8.42500000
H        8.20400000       5.73600000       7.10100000
H        7.72100000       7.34500000       7.74500000
16
Lattice="12.893 0.0 0.0 0.0 12.893 0.0 0.0 0.0 12.893" Properties=species:S:1:pos:R:3 Time=0.0 energy=1.0 pbc="T T T"
H        6.52400000       1.91000000       5.80300000
C        6.04100000       2.92100000       5.70200000
C        5.01100000       2.98900000       4.79000000
H        4.79700000       2.11200000       4.18300000
C        4.23400000       4.17500000       4.68200000
H        3.38300000       4.15100000       4.07900000
C        4.73500000       5.29600000       5.36500000
H        4.07700000       6.21600000       5.47100000
C        5.90600000       5.22200000       6.15200000
C        6.54300000       4.01400000       6.43500000
H        7.39900000       3.89500000       7.05300000
O        6.44700000       6.44700000       6.44700000
C        7.47900000       6.57700000       7.43500000
H        7.22600000       6.13300000       8.40900000
H        8.43100000       6.18100000       7.08000000
H        7.66400000       7.69400000       7.43800000
16
Lattice="12.893 0.0 0.0 0.0 12.893 0.0 0.0 0.0 12.893" Properties=species:S:1:pos:R:3 Time=0.0 energy=1.0 pbc="T T T"
H        6.47000000       1.81500000       5.58800000
C        5.92700000       2.80600000       5.55200000
C        4.64500000       2.95700000       5.04300000
H        4.05300000       2.14600000       4.57300000
C        4.05300000       4.18600000       4.96700000
H        3.10200000       4.18500000       4.53400000
C        4.67000000       5.31100000       5.52400000
H        4.23400000       6.35200000       5.39400000
C        5.93300000       5.23200000       5.98900000
C        6.61600000       3.95200000       5.98300000
H        7.60600000       3.93900000       6.33600000
O        6.44700000       6.44700000       6.44700000
C        7.86000000       6.47500000       6.87500000
H        8.13400000       5.93900000       7.76400000
H        8.49400000       6.05700000       6.05700000
H        8.08200000       7.59400000       6.92200000
16
Lattice="12.893 0.0 0.0 0.0 12.893 0.0 0.0 0.0 12.893" Properties=species:S:1:pos:R:3 Time=0.0 energy=1.0 pbc="T T T"
H        7.54500000       2.20100000       5.09000000
C        6.74200000       2.93900000       5.32400000
C        5.39600000       2.67000000       5.07000000
H        5.02000000       1.69800000       4.72600000
C        4.46000000       3.69400000       5.21500000
H        3.36100000       3.52500000       5.11300000
C        4.86400000       4.94600000       5.62400000
H        4.08900000       5.75800000       5.78600000
C        6.21200000       5.23000000       5.91200000
C        7.17800000       4.20300000       5.77600000
H        8.23300000       4.47300000       5.89800000
O        6.44700000       6.44700000       6.44700000
C        7.79500000       6.79300000       6.84300000
H        8.03500000       6.21600000       7.78000000
H        8.55600000       6.48600000       6.15500000
H        7.73400000       7.92700000       7.03000000
16
Lattice="12.893 0.0 0.0 0.0 12.893 0.0 0.0 0.0 12.893" Properties=species:S:1:pos:R:3 Time=0.0 energy=1.0 pbc="T T T"
H        7.37500000       2.07800000       5.12400000
C        6.69000000       2.88800000       5.16700000
C        5.36000000       2.81800000       4.61600000
H        5.01300000       1.99900000       4.02500000
C        4.49800000       3.96000000       4.67200000
H        3.43300000       3.93400000       4.26400000
C        4.98100000       5.16400000       5.25400000
H        4.26800000       5.93400000       5.29800000
C        6.22600000       5.22000000       5.81900000
C        7.08400000       4.09800000       5.83400000
H        8.11900000       4.18100000       6.19300000
O        6.44700000       6.44700000       6.44700000
C        7.75300000       6.70600000       6.94700000
H        8.10700000       6.00400000       7.76400000
H        8.45700000       6.51100000       6.13100000
H        7.75100000       7.79900000       7.23900000
16
Lattice="12.893 0.0 0.0 0.0 12.893 0.0 0.0 0.0 12.893" Properties=species:S:1:pos:R:3 Time=0.0 energy=1.0 pbc="T T T"
H        6.85600000       2.32700000       4.26300000
C        6.32500000       3.22900000       4.56400000
C        4.95800000       3.15100000       4.27400000
H        4.50100000       2.30800000       3.69600000
C        4.10900000       4.18300000       4.78200000
H        2.97100000       4.13000000       4.71000000
C        4.68600000       5.18800000       5.53200000
H        4.08200000       5.90100000       6.00800000
C        6.07100000       5.29800000       5.74500000
C        6.90100000       4.27600000       5.24500000
H        8.04600000       4.32500000       5.35100000
O        6.44700000       6.44700000       6.44700000
C        7.84700000       6.71300000       6.33200000
H        8.37000000       5.92300000       6.82600000
H        8.13200000       6.79600000       5.24000000
H        8.10100000       7.62700000       6.96200000
16
Lattice="12.893 0.0 0.0 0.0 12.893 0.0 0.0 0.0 12.893" Properties=species:S:1:pos:R:3 Time=0.0 energy=1.0 pbc="T T T"
H        7.08300000       2.35200000       4.34000000
C        6.41300000       3.12200000       4.70400000
C        5.01300000       2.92600000       4.57900000
H        4.72600000       2.05800000       4.06700000
C        4.16200000       3.88900000       5.01900000
H        3.08300000       3.71200000       4.91800000
C        4.69700000       5.13000000       5.54200000
H        3.97600000       5.83200000       5.88500000
C        6.06100000       5.32200000       5.79400000
C        6.91300000       4.27600000       5.38500000
H        7.96300000       4.33700000       5.51800000
O        6.44700000       6.44700000       6.44700000
C        7.83300000       6.73600000       6.52900000
H        8.40200000       5.85400000       6.83400000
H        8.28000000       7.15200000       5.62100000
H        7.87700000       7.59000000       7.26100000
16
Lattice="12.893 0.0 0.0 0.0 12.893 0.0 0.0 0.0 12.893" Properties=species:S:1:pos:R:3 Time=0.0 energy=1.0 pbc="T T T"
H        7.09300000       2.28800000       4.73800000
C        6.50200000       3.10700000       4.87200000
C        5.15500000       2.95400000       4.63500000
H        4.82800000       2.01000000       4.19500000
C        4.26100000       3.97000000       4.96400000
H        3.20600000       3.79300000       4.75800000
C        4.73400000       5.08200000       5.66200000
H        4.08700000       5.85500000       6.01800000
C        6.12800000       5.22100000       5.88600000
C        7.05900000       4.28200000       5.44100000
H        8.10100000       4.38900000       5.60600000
O        6.44700000       6.44700000       6.44700000
C        7.84300000       6.69400000       6.73200000
H        8.12300000       5.99500000       7.57300000
H        8.49500000       6.77000000       5.84400000
H        7.83200000       7.68700000       7.17800000
16
Lattice="12.893 0.0 0.0 0.0 12.893 0.0 0.0 0.0 12.893" Properties=species:S:1:pos:R:3 Time=0.0 energy=1.0 pbc="T T T"
H        6.93800000       2.14600000       5.05000000
C        6.39200000       3.10800000       4.96700000
C        5.36700000       3.23300000       4.00200000
H        5.09700000       2.40600000       3.28200000
C        4.60100000       4.44600000       4.03300000
H        3.83500000       4.59000000       3.30900000
C        5.03200000       5.47200000       4.89000000
H        4.50300000       6.42600000       4.91700000
C        6.11600000       5.31400000       5.77900000
C        6.77200000       4.10100000       5.86900000
H        7.47800000       3.86900000       6.63000000
O        6.44700000       6.44700000       6.44700000
C        7.94800000       6.75400000       6.66600000
H        8.34000000       6.48600000       7.65600000
H        8.55000000       6.27900000       5.88600000
H        7.92700000       7.88700000       6.58800000
16
Lattice="12.893 0.0 0.0 0.0 12.893 0.0 0.0 0.0 12.893" Properties=species:S:1:pos:R:3 Time=0.0 energy=1.0 pbc="T T T"
H        7.16000000       2.55400000       3.83500000
C        6.57200000       3.35400000       4.27900000
C        5.20400000       3.37700000       3.88900000
H        4.82200000       2.67100000       3.07200000
C        4.39700000       4.46500000       4.22900000
H        3.41500000       4.63000000       3.89300000
C        4.85900000       5.43400000       5.12300000
H        4.23800000       6.31900000       5.42500000
C        6.20000000       5.37500000       5.56000000
C        7.06800000       4.36100000       5.14100000
H        8.05500000       4.29600000       5.48800000
O        6.44700000       6.44700000       6.44700000
C        7.64800000       6.28700000       7.21600000
H        7.88900000       5.24400000       7.40600000
H        8.49800000       6.79000000       6.72600000
H        7.46200000       6.85500000       8.19100000
16
Lattice="12.893 0.0 0.0 0.0 12.893 0.0 0.0 0.0 12.893" Properties=species:S:1:pos:R:3 Time=0.0 energy=1.0 pbc="T T T"
H        7.01700000       2.16400000       4.93100000
C        6.40900000       3.02200000       4.96800000
C        5.29300000       3.16400000       4.12900000
H        5.01900000       2.35300000       3.52800000
C        4.50200000       4.30800000       4.28400000
H        3.41100000       4.34100000       3.88500000
C        4.91300000       5.35400000       5.06000000
H        4.31200000       6.27400000       5.14900000
C        6.05800000       5.28300000       5.74900000
C        6.83100000       4.08700000       5.75600000
H        7.69700000       3.88900000       6.36700000
O        6.44700000       6.44700000       6.44700000
C        7.85900000       6.71300000       6.33600000
H        8.46000000       6.15900000       7.06600000
H        8.25500000       6.69700000       5.28400000
H        7.92700000       7.68700000       6.77700000
16
Lattice="12.893 0.0 0.0 0.0 12.893 0.0 0.0 0.0 12.893" Properties=species:S:1:pos:R:3 Time=0.0 energy=1.0 pbc="T T T"
H        7.06500000       2.11600000       5.22100000
C        6.40500000       2.97100000       5.22100000
C        5.07900000       2.83500000       4.80400000
H        4.81900000       1.95000000       4.29000000
C        4.23900000       3.98900000       4.81700000
H        3.25100000       3.93600000       4.33000000
C        4.77400000       5.17900000       5.40500000
H        4.14500000       6.09700000       5.54000000
C        6.11200000       5.25400000       5.82800000
C        6.95300000       4.14900000       5.72300000
H        7.93700000       4.06000000       6.24100000
O        6.44700000       6.44700000       6.44700000
C        7.92800000       6.69200000       6.41200000
H        8.38300000       6.15200000       7.27400000
H        8.40500000       6.48100000       5.42600000
H        7.94500000       7.72000000       6.75500000
16
Lattice="12.893 0.0 0.0 0.0 12.893 0.0 0.0 0.0 12.893" Properties=species:S:1:pos:R:3 Time=0.0 energy=1.0 pbc="T T T"
H        6.91000000       2.00200000       5.28200000
C        6.30000000       2.91700000       5.28500000
C        5.01600000       2.92100000       4.73900000
H        4.52700000       1.99800000       4.41700000
C        4.24200000       4.03700000       4.87500000
H        3.13000000       4.06200000       4.64300000
C        4.67400000       5.22100000       5.41500000
H        4.02700000       6.03400000       5.63600000
C        6.02900000       5.30300000       5.89700000
C        6.83000000       4.15400000       5.81600000
H        7.87900000       4.21800000       6.10700000
O        6.44700000       6.44700000       6.44700000
C        7.83600000       6.77400000       6.52100000
H        8.37900000       6.22600000       7.33900000
H        8.24500000       6.44700000       5.54200000
H        8.03700000       7.84300000       6.56900000
16
Lattice="12.893 0.0 0.0 0.0 12.893 0.0 0.0 0.0 12.893" Properties=species:S:1:pos:R:3 Time=0.0 energy=1.0 pbc="T T T"
H        7.05800000       2.12800000       5.17800000
C        6.40900000       2.98600000       5.33500000
C        5.08700000       2.81600000       5.11500000
H        4.65800000       1.84500000       4.81400000
C        4.21600000       3.80400000       5.46300000
H        3.07900000       3.66300000       5.43600000
C        4.67200000       5.06200000       5.86400000
H        4.10000000       5.90200000       6.25300000
C        6.10600000       5.21000000       6.04200000
C        6.98800000       4.18600000       5.74200000
H        8.04200000       4.17700000       5.95700000
O        6.44700000       6.44700000       6.44700000
C        7.91200000       6.69500000       6.58500000
H        8.42500000       5.83100000       7.05200000
H        8.31900000       6.97900000       5.60100000
H        7.98800000       7.56200000       7.23800000
16
Lattice="12.893 0.0 0.0 0.0 12.893 0.0 0.0 0.0 12.893" Properties=species:S:1:pos:R:3 Time=0.0 energy=1.0 pbc="T T T"
H        7.28400000       1.97900000       5.59400000
C        6.56600000       2.75800000       5.73800000
C        5.18700000       2.51300000       5.64600000
H        4.83800000       1.48800000       5.44700000
C        4.32100000       3.56200000       5.98500000
H        3.32000000       3.24100000       5.88300000
C        4.71000000       4.84800000       6.19800000
H        3.96600000       5.62300000       6.40500000
C        6.12700000       5.09900000       6.20600000
C        7.02600000       4.07200000       6.02800000
H        8.10400000       4.21600000       6.18600000
O        6.44700000       6.44700000       6.44700000
C        7.74200000       6.70300000       6.85900000
H        7.84500000       6.33500000       7.88000000
H        8.50200000       6.18300000       6.29100000
H        7.86300000       7.79800000       6.87800000
16
Lattice="12.893 0.0 0.0 0.0 12.893 0.0 0.0 0.0 12.893" Properties=species:S:1:pos:R:3 Time=0.0 energy=1.0 pbc="T T T"
H        7.30200000       1.95100000       5.91000000
C        6.56900000       2.79300000       6.03200000
C        5.19000000       2.48500000       5.92600000
H        4.94100000       1.49800000       5.60900000
C        4.27600000       3.52000000       6.14600000
H        3.21200000       3.36600000       6.24700000
C        4.72200000       4.77300000       6.42000000
H        3.99900000       5.56200000       6.61400000
C        6.10000000       5.06500000       6.41000000
C        7.05000000       4.09400000       6.34800000
H        8.12800000       4.23600000       6.35600000
O        6.44700000       6.44700000       6.44700000
C        7.72800000       6.74800000       7.05900000
H        7.90500000       6.51200000       8.13400000
H        8.54600000       6.28700000       6.43900000
H        7.86500000       7.83400000       7.02900000
16
Lattice="12.893 0.0 0.0 0.0 12.893 0.0 0.0 0.0 12.893" Properties=species:S:1:pos:R:3 Time=0.0 energy=1.0 pbc="T T T"
H        7.46800000       2.15800000       5.10600000
C        6.67700000       2.95500000       5.25300000
C        5.47500000       2.89100000       4.54800000
H        5.27400000       2.11600000       3.82200000
C        4.50700000       3.94900000       4.76300000
H        3.50200000       3.79400000       4.30900000
C        4.87400000       5.10100000       5.38300000
H        4.23100000       5.98200000       5.30900000
C        6.13800000       5.20000000       6.01400000
C        7.09100000       4.15500000       5.91500000
H        8.10300000       4.24200000       6.21600000
O        6.44700000       6.44700000       6.44700000
C        7.73900000       6.57800000       7.02400000
H        7.80600000       5.87900000       7.86400000
H        8.63700000       6.40200000       6.44300000
H        7.67400000       7.59400000       7.41100000
16
Lattice="12.893 0.0 0.0 0.0 12.893 0.0 0.0 0.0 12.893" Properties=species:S:1:pos:R:3 Time=0.0 energy=1.0 pbc="T T T"
H        6.64200000       2.13000000       4.59000000
C        6.11800000       3.08100000       4.77100000
C        4.77300000       3.23100000       4.37200000
H        4.17300000       2.38600000       4.04800000
C        4.10900000       4.43800000       4.61500000
H        3.12600000       4.60700000       4.30400000
C        4.71100000       5.44100000       5.31600000
H        4.12700000       6.32900000       5.56200000
C        5.96400000       5.31800000       5.81900000
C        6.68500000       4.13000000       5.57200000
H        7.70700000       4.04000000       5.89900000
O        6.44700000       6.44700000       6.44700000
C        7.71600000       6.23600000       7.11700000
H        7.68200000       5.50000000       7.92200000
H        8.40000000       5.90400000       6.30900000
H        7.94200000       7.22400000       7.47600000
16
Lattice="12.893 0.0 0.0 0.0 12.893 0.0 0.0 0.0 12.893" Properties=species:S:1:pos:R:3 Time=0.0 energy=1.0 pbc="T T T"
H        6.65500000       2.28800000       4.67800000
C        6.06200000       3.16200000       4.82900000
C        4.72700000       3.25000000       4.34500000
H        4.40500000       2.44600000       3.61700000
C        4.01900000       4.43100000       4.53400000
H        3.00500000       4.41500000       4.16300000
C        4.62700000       5.47900000       5.25500000
H        4.11900000       6.42000000       5.57900000
C        5.97600000       5.38600000       5.68300000
C        6.72700000       4.24800000       5.43000000
H        7.76300000       4.02100000       5.79200000
O        6.44700000       6.44700000       6.44700000
C        7.79800000       6.30300000       7.01400000
H        7.78800000       5.53000000       7.81300000
H        8.57300000       6.01900000       6.28100000
H        7.97500000       7.31900000       7.43400000
16
Lattice="12.893 0.0 0.0 0.0 12.893 0.0 0.0 0.0 12.893" Properties=species:S:1:pos:R:3 Time=0.0 energy=1.0 pbc="T T T"
H        7.23700000       2.10200000       5.07400000
C        6.49400000       2.86600000       5.20600000
C        5.13800000       2.75000000       4.84900000
H        4.71700000       1.85000000       4.36800000
C        4.31200000       3.79800000       5.15500000
H        3.19700000       3.57900000       4.99800000
C        4.69700000       5.01800000       5.66800000
H        3.98700000       5.81500000       5.61800000
C        6.08800000       5.17000000       5.93200000
C        6.96700000       4.09500000       5.73100000
H        8.02900000       4.12300000       5.84400000
O        6.44700000       6.44700000       6.44700000
C        7.64600000       6.55200000       7.20000000
H        7.64400000       5.70300000       7.88600000
H        8.53700000       6.56000000       6.57900000
H        7.48200000       7.48000000       7.74200000
16
Lattice="12.893 0.0 0.0 0.0 12.893 0.0 0.0 0.0 12.893" Properties=species:S:1:pos:R:3 Time=0.0 energy=1.0 pbc="T T T"
H        6.23500000       1.85600000       6.05800000
C        5.74100000       2.85200000       6.05000000
C        4.35100000       2.95500000       5.88900000
H        3.79000000       2.08700000       5.46800000
C        3.68400000       4.14900000       6.09300000
H        2.53700000       4.26400000       5.81100000
C        4.50000000       5.22400000       6.47800000
H        4.09900000       6.27700000       6.60700000
C        5.89600000       5.18100000       6.39900000
C        6.51000000       3.95200000       6.33000000
H        7.55100000       3.75300000       6.47000000
O        6.44700000       6.44700000       6.44700000
C        7.84900000       6.54300000       6.29500000
H        8.32200000       5.62600000       6.72300000
H        8.10500000       6.63500000       5.22100000
H        8.35500000       7.39400000       6.74500000
16
Lattice="12.893 0.0 0.0 0.0 12.893 0.0 0.0 0.0 12.893" Properties=species:S:1:pos:R:3 Time=0.0 energy=1.0 pbc="T T T"
H        7.06200000       2.84600000       3.62100000
C        6.43600000       3.57400000       4.14600000
C        5.07200000       3.48800000       3.88300000
H        4.75600000       2.70000000       3.24400000
C        4.19600000       4.34600000       4.54300000
H        3.06900000       4.20400000       4.39600000
C        4.70100000       5.41500000       5.28800000
H        4.18900000       6.13800000       5.82000000
C        6.10700000       5.42700000       5.55400000
C        7.01800000       4.50300000       5.01000000
H        8.10700000       4.54500000       5.21300000
O        6.44700000       6.44700000       6.44700000
C        7.87200000       6.74500000       6.43900000
H        8.38900000       5.94400000       7.02800000
H        8.25800000       6.80500000       5.39500000
H        7.93400000       7.70200000       7.02200000
16
Lattice="12.893 0.0 0.0 0.0 12.893 0.0 0.0 0.0 12.893" Properties=species:S:1:pos:R:3 Time=0.0 energy=1.0 pbc="T T T"
H        7.20500000       2.18400000       5.19400000
C        6.49500000       2.95800000       5.36900000
C        5.12200000       2.70100000       5.27100000
H        4.69500000       1.69700000       4.95200000
C        4.20100000       3.74400000       5.54000000
H        3.21900000       3.63200000       5.21300000
C        4.66600000       5.00600000       5.92300000
H        4.04600000       5.83700000       6.11200000
C        6.05700000       5.21500000       6.03400000
C        7.01900000       4.21000000       5.77700000
H        8.05000000       4.39900000       5.75800000
O        6.44700000       6.44700000       6.44700000
C        7.92200000       6.67800000       6.73400000
H        8.40100000       5.72000000       7.04300000
H        8.42700000       7.12300000       5.83500000
H        7.89100000       7.41100000       7.54200000
16
Lattice="12.893 0.0 0.0 0.0 12.893 0.0 0.0 0.0 12.893" Properties=species:S:1:pos:R:3 Time=0.0 energy=1.0 pbc="T T T"
H        7.24800000       2.19700000       4.83800000
C        6.52600000       2.93800000       5.10400000
C        5.15200000       2.83100000       4.76600000
H        4.76400000       1.91700000       4.26100000
C        4.31200000       3.93800000       5.01600000
H        3.31800000       3.89500000       4.79000000
C        4.73600000       5.09400000       5.67100000
H        4.14700000       5.91200000       5.94700000
C        6.11200000       5.14900000       6.00000000
C        7.05200000       4.15100000       5.64100000
H        8.10100000       4.26800000       5.84100000
O        6.44700000       6.44700000       6.44700000
C        7.79900000       6.72300000       6.80900000
H        8.13300000       6.06300000       7.62000000
H        8.56100000       6.60800000       6.04500000
H        7.78600000       7.69100000       7.28400000
16
Lattice="12.893 0.0 0.0 0.0 12.893 0.0 0.0 0.0 12.893" Properties=species:S:1:pos:R:3 Time=0.0 energy=1.0 pbc="T T T"
H        6.90100000       2.03400000       5.37000000
C        6.25700000       2.95700000       5.28200000
C        4.90400000       2.88900000       4.85100000
H        4.43200000       1.95800000       4.52900000
C        4.13300000       4.07200000       4.93600000
H        3.02300000       3.98400000       4.75200000
C        4.63000000       5.27400000       5.41200000
H        3.95300000       6.20200000       5.67000000
C        5.96500000       5.31200000       5.85600000
C        6.80700000       4.18400000       5.64400000
H        7.89500000       4.21600000       6.00000000
O        6.44700000       6.44700000       6.44700000
C        7.87600000       6.47800000       6.77100000
H        8.17400000       5.57900000       7.30100000
H        8.41000000       6.72400000       5.87000000
H        7.85400000       7.39700000       7.37300000
16
Lattice="12.893 0.0 0.0 0.0 12.893 0.0 0.0 0.0 12.893" Properties=species:S:1:pos:R:3 Time=0.0 energy=1.0 pbc="T T T"
H        6.83600000       2.71000000       3.95200000
C        6.18600000       3.49900000       4.33800000
C        4.83300000       3.62600000       3.96300000
H        4.32400000       2.86300000       3.35100000
C        4.10400000       4.69600000       4.41200000
H        2.99000000       4.74400000       4.33000000