18
Lattice="15.954 0.0 0.0 0.0 15.954 0.0 0.0 0.0 15.954" Properties=species:S:1:pos:R:3 pbc="T T T" Time = 0.0 energy = 1.0
O  14.283000  10.448000  10.937000
C  12.982000  10.933000  10.980000
C  12.591000  12.176000  11.503000
H  13.225000  12.814000  12.103000
C  11.288000  12.655000  11.250000
H  10.948000  13.562000  11.710000
C  10.314000  11.883000  10.545000
N  9.027000  12.355000  10.203000
H  8.425000  11.584000  9.931000
H  8.623000  13.193000  10.628000
C  10.662000  10.567000  10.117000
H  9.814000  9.981000  9.729000
C  11.986000  10.081000  10.317000
H  12.209000  9.042000  10.113000
C  14.858000  10.718000  9.644000
H  15.871000  10.319000  9.717000
H  14.252000  10.285000  8.838000
H  14.924000  11.854000  9.540000
18
Lattice="15.954 0.0 0.0 0.0 15.954 0.0 0.0 0.0 15.954" Properties=species:S:1:pos:R:3 pbc="T T T" Time = 0.0 energy = 1.0
O  14.322000  10.452000  10.937000
C  12.924000  10.903000  10.929000
C  12.606000  12.161000  11.412000
H  13.387000  12.673000  11.945000
C  11.245000  12.628000  11.322000
H  10.924000  13.572000  11.731000
C  10.357000  11.843000  10.544000
N  9.066000  12.345000  10.327000
H  8.317000  11.665000  10.250000
H  8.762000  13.246000  10.721000
C  10.696000  10.558000  10.105000
H  10.021000  9.868000  9.568000
C  11.993000  10.105000  10.330000
H  12.389000  9.274000  9.798000
C  14.928000  10.708000  9.643000
H  15.944000  10.327000  9.596000
H  14.328000  10.248000  8.852000
H  14.959000  11.827000  9.412000
18
Lattice="15.954 0.0 0.0 0.0 15.954 0.0 0.0 0.0 15.954" Properties=species:S:1:pos:R:3 pbc="T T T" Time = 0.0 energy = 1.0
O  14.538000  10.108000  10.705000
C  13.262000  10.583000  10.688000
C  12.931000  11.825000  11.410000
H  13.616000  12.591000  11.872000
C  11.581000  12.289000  11.358000
H  11.270000  13.186000  11.969000
C  10.569000  11.603000  10.678000
N  9.262000  12.156000  10.484000
H  8.494000  11.486000  10.510000
H  9.179000  13.017000  11.070000
C  10.908000  10.431000  9.991000
H  10.082000  9.944000  9.437000
C  12.247000  9.957000  9.997000
H  12.496000  9.118000  9.309000
C  15.267000  10.388000  9.511000
H  16.199000  9.825000  9.661000
H  14.805000  9.985000  8.628000
H  15.442000  11.497000  9.475000
18
Lattice="15.954 0.0 0.0 0.0 15.954 0.0 0.0 0.0 15.954" Properties=species:S:1:pos:R:3 pbc="T T T" Time = 0.0 energy = 1.0
O  15.020000  10.144000  11.590000
C  13.742000  10.642000  11.249000
C  13.266000  11.741000  11.903000
H  13.971000  12.251000  12.593000
C  11.996000  12.243000  11.611000
H  11.613000  13.153000  12.133000
C  11.100000  11.634000  10.687000
N  9.842000  12.204000  10.374000
H  9.098000  11.472000  10.308000
H  9.644000  13.098000  10.939000
C  11.582000  10.469000  10.044000
H  10.900000  9.920000  9.300000
C  12.887000  9.965000  10.252000
H  13.262000  9.147000  9.693000
C  15.779000  9.507000  10.489000
H  16.804000  9.396000  10.765000
H  15.382000  8.425000  10.376000
H  15.662000  10.060000  9.554000
18
Lattice="15.954 0.0 0.0 0.0 15.954 0.0 0.0 0.0 15.954" Properties=species:S:1:pos:R:3 pbc="T T T" Time = 0.0 energy = 1.0
O  15.024000  10.157000  11.420000
C  13.673000  10.634000  11.203000
C  13.172000  11.719000  11.858000
H  13.774000  12.244000  12.646000
C  11.923000  12.241000  11.576000
H  11.702000  13.173000  12.177000
C  11.104000  11.628000  10.583000
N  9.835000  12.215000  10.241000
H  9.050000  11.542000  10.081000
H  9.458000  12.812000  11.022000
C  11.567000  10.460000  10.000000
H  11.053000  9.847000  9.251000
C  12.882000  10.035000  10.207000
H  13.315000  9.186000  9.646000
C  15.632000  9.789000  10.113000
H  16.676000  9.748000  10.283000
H  15.376000  8.785000  9.746000
H  15.367000  10.529000  9.306000
18
Lattice="15.954 0.0 0.0 0.0 15.954 0.0 0.0 0.0 15.954" Properties=species:S:1:pos:R:3 pbc="T T T" Time = 0.0 energy = 1.0
O  14.679000  9.776000  10.895000
C  13.382000  10.359000  10.764000
C  13.167000  11.646000  11.336000
H  14.026000  12.164000  11.813000
C  11.927000  12.197000  11.283000
H  11.854000  13.183000  11.812000
C  10.900000  11.517000  10.649000
N  9.690000  12.129000  10.450000
H  8.895000  11.519000  10.266000
H  9.470000  12.795000  11.186000
C  11.161000  10.282000  10.003000
H  10.386000  9.795000  9.471000
C  12.386000  9.735000  10.059000
H  12.579000  8.866000  9.393000
C  15.508000  9.457000  9.814000
H  16.465000  9.170000  10.221000
H  15.081000  8.664000  9.232000
H  15.698000  10.438000  9.234000
18
Lattice="15.954 0.0 0.0 0.0 15.954 0.0 0.0 0.0 15.954" Properties=species:S:1:pos:R:3 pbc="T T T" Time = 0.0 energy = 1.0
O  14.662000  9.702000  10.825000
C  13.409000  10.288000  10.754000
C  13.217000  11.592000  11.252000
H  14.133000  12.162000  11.526000
C  11.932000  12.166000  11.110000
H  11.750000  13.259000  11.257000
C  10.845000  11.399000  10.691000
N  9.613000  12.115000  10.573000
H  8.799000  11.500000  10.646000
H  9.575000  12.905000  11.246000
C  11.026000  10.019000  10.155000
H  10.215000  9.523000  9.705000
C  12.356000  9.556000  10.154000
H  12.557000  8.543000  9.680000
C  15.408000  9.495000  9.652000
H  16.428000  9.086000  9.861000
H  14.950000  8.785000  8.980000
H  15.532000  10.495000  9.205000
18
Lattice="15.954 0.0 0.0 0.0 15.954 0.0 0.0 0.0 15.954" Properties=species:S:1:pos:R:3 pbc="T T T" Time = 0.0 energy = 1.0
O  15.149000  10.166000  10.645000
C  13.790000  10.613000  10.761000
C  13.529000  11.906000  11.133000
H  14.290000  12.643000  11.394000
C  12.221000  12.354000  11.058000
H  12.075000  13.395000  11.319000
C  11.144000  11.551000  10.706000
N  9.847000  12.008000  10.608000
H  9.230000  11.234000  10.553000
H  9.501000  12.748000  11.241000
C  11.427000  10.162000  10.408000
H  10.711000  9.471000  10.149000
C  12.758000  9.712000  10.472000
H  12.910000  8.679000  10.164000
C  15.726000  10.575000  9.364000
H  16.611000  9.978000  9.333000
H  14.963000  10.227000  8.610000
H  15.895000  11.660000  9.187000
18
Lattice="15.954 0.0 0.0 0.0 15.954 0.0 0.0 0.0 15.954" Properties=species:S:1:pos:R:3 pbc="T T T" Time = 0.0 energy = 1.0
O  14.788000  9.757000  10.786000
C  13.553000  10.403000  10.748000
C  13.285000  11.686000  11.245000
H  14.076000  12.331000  11.714000
C  12.044000  12.297000  11.116000
H  11.843000  13.335000  11.329000
C  11.008000  11.543000  10.565000
N  9.755000  12.204000  10.295000
H  8.968000  11.510000  10.271000
H  9.482000  13.071000  10.870000
C  11.198000  10.144000  10.244000
H  10.436000  9.536000  9.785000
C  12.473000  9.602000  10.292000
H  12.637000  8.549000  10.022000
C  15.824000  10.076000  9.818000
H  16.531000  9.293000  9.824000
H  15.239000  10.061000  8.841000
H  16.342000  11.035000  9.958000
18
Lattice="15.954 0.0 0.0 0.0 15.954 0.0 0.0 0.0 15.954" Properties=species:S:1:pos:R:3 pbc="T T T" Time = 0.0 energy = 1.0
O  14.201000  9.426000  11.035000
C  13.056000  10.174000  10.918000
C  12.961000  11.363000  11.592000
H  13.834000  11.783000  12.149000
C  11.851000  12.198000  11.425000
H  11.828000  13.157000  11.896000
C  10.715000  11.809000  10.632000
N  9.586000  12.606000  10.311000
H  8.742000  12.089000  10.071000
H  9.412000  13.448000  10.856000
C  10.825000  10.528000  10.069000
H  9.972000  10.109000  9.638000
C  11.970000  9.729000  10.186000
H  11.932000  8.814000  9.567000
C  15.163000  9.615000  9.971000
H  15.783000  8.749000  9.882000
H  14.551000  9.810000  9.060000
H  15.712000  10.528000  10.280000
18
Lattice="15.954 0.0 0.0 0.0 15.954 0.0 0.0 0.0 15.954" Properties=species:S:1:pos:R:3 pbc="T T T" Time = 0.0 energy = 1.0
O  14.909000  10.537000  10.789000
C  13.546000  10.731000  10.771000
C  13.058000  11.839000  11.453000
H  13.682000  12.545000  11.978000
C  11.729000  12.132000  11.405000
H  11.450000  13.016000  12.043000
C  10.749000  11.330000  10.800000
N  9.422000  11.613000  10.617000
H  8.737000  10.872000  10.494000
H  9.122000  12.316000  11.336000
C  11.271000  10.227000  10.084000
H  10.577000  9.561000  9.506000
C  12.644000  9.921000  10.064000
H  12.943000  9.106000  9.420000
C  15.459000  9.644000  9.761000
H  16.538000  9.488000  9.734000
H  14.986000  8.658000  9.949000
H  15.170000  10.032000  8.741000
18
Lattice="15.954 0.0 0.0 0.0 15.954 0.0 0.0 0.0 15.954" Properties=species:S:1:pos:R:3 pbc="T T T" Time = 0.0 energy = 1.0
O  15.092000  10.665000  10.915000
C  13.778000  10.875000  10.679000
C  13.239000  11.981000  11.320000
H  13.870000  12.676000  11.890000
C  11.883000  12.292000  11.301000
H  11.449000  13.141000  11.846000
C  10.987000  11.471000  10.658000
N  9.599000  11.765000  10.579000
H  9.009000  10.944000  10.465000
H  9.113000  12.471000  11.196000
C  11.541000  10.297000  10.040000
H  10.765000  9.572000  9.559000
C  12.866000  9.933000  10.083000
H  13.216000  8.978000  9.679000
C  15.708000  9.812000  9.920000
H  16.783000  10.030000  9.951000
H  15.632000  8.742000  10.076000
H  15.372000  10.080000  8.905000
18
Lattice="15.954 0.0 0.0 0.0 15.954 0.0 0.0 0.0 15.954" Properties=species:S:1:pos:R:3 pbc="T T T" Time = 0.0 energy = 1.0
O  14.822000  10.971000  9.584000
C  13.519000  11.101000  10.060000
C  13.254000  12.166000  10.922000
H  14.118000  12.802000  11.120000
C  11.967000  12.412000  11.415000
H  11.826000  13.357000  11.955000
C  10.868000  11.754000  10.979000
N  9.551000  12.330000  11.174000
H  8.938000  11.518000  11.388000
H  9.355000  13.080000  11.838000
C  11.109000  10.668000  10.005000
H  10.173000  10.203000  9.681000
C  12.395000  10.291000  9.646000
H  12.482000  9.497000  8.879000
C  15.191000  9.577000  9.275000
H  16.279000  9.630000  9.176000
H  14.876000  8.802000  10.028000
H  14.734000  9.277000  8.306000
18
Lattice="15.954 0.0 0.0 0.0 15.954 0.0 0.0 0.0 15.954" Properties=species:S:1:pos:R:3 pbc="T T T" Time = 0.0 energy = 1.0
O  14.786000  10.968000  9.830000
C  13.481000  11.089000  10.195000
C  13.180000  12.206000  10.939000
H  14.027000  12.863000  11.169000
C  11.813000  12.548000  11.281000
H  11.706000  13.515000  11.824000
C  10.743000  11.667000  10.973000
N  9.446000  12.143000  11.130000
H  8.871000  11.337000  11.391000
H  9.317000  12.835000  11.913000
C  11.039000  10.545000  10.182000
H  10.301000  9.931000  9.713000
C  12.369000  10.213000  9.812000
H  12.493000  9.205000  9.342000
C  15.162000  9.614000  9.447000
H  16.194000  9.670000  9.176000
H  14.965000  8.789000  10.185000
H  14.719000  9.355000  8.469000
18
Lattice="15.954 0.0 0.0 0.0 15.954 0.0 0.0 0.0 15.954" Properties=species:S:1:pos:R:3 pbc="T T T" Time = 0.0 energy = 1.0
O  14.764000  10.870000  10.051000
C  13.466000  11.154000  10.312000
C  13.120000  12.359000  10.970000
H  13.943000  13.046000  11.208000
C  11.741000  12.583000  11.306000
H  11.732000  13.499000  11.970000
C  10.698000  11.758000  10.814000
N  9.383000  12.097000  11.061000
H  8.707000  11.352000  11.144000
H  9.385000  12.742000  11.898000
C  11.086000  10.561000  10.196000
H  10.363000  9.833000  9.935000
C  12.426000  10.243000  9.930000
H  12.633000  9.331000  9.325000
C  15.229000  9.592000  9.449000
H  16.251000  9.590000  9.176000
H  15.001000  8.756000  10.169000
H  14.660000  9.316000  8.509000
18
Lattice="15.954 0.0 0.0 0.0 15.954 0.0 0.0 0.0 15.954" Properties=species:S:1:pos:R:3 pbc="T T T" Time = 0.0 energy = 1.0
O  14.776000  10.893000  10.414000
C  13.408000  11.132000  10.571000
C  13.068000  12.375000  11.198000
H  13.836000  13.070000  11.553000
C  11.724000  12.639000  11.344000
H  11.412000  13.640000  11.795000
C  10.762000  11.799000  10.865000
N  9.344000  12.224000  10.892000
H  8.664000  11.428000  11.055000
H  9.169000  12.956000  11.544000
C  11.118000  10.634000  10.179000
H  10.276000  10.073000  9.872000
C  12.427000  10.275000  10.088000
H  12.758000  9.353000  9.607000
C  15.197000  9.808000  9.501000
H  16.248000  9.669000  9.489000
H  14.697000  8.898000  9.860000
H  14.971000  9.983000  8.408000
18
Lattice="15.954 0.0 0.0 0.0 15.954 0.0 0.0 0.0 15.954" Properties=species:S:1:pos:R:3 pbc="T T T" Time = 0.0 energy = 1.0
O  14.730000  10.937000  10.531000
C  13.358000  11.154000  10.679000
C  12.946000  12.207000  11.482000
H  13.796000  12.686000  11.960000
C  11.637000  12.646000  11.532000
H  11.428000  13.681000  11.981000
C  10.640000  11.872000  10.874000
N  9.334000  12.344000  10.689000
H  8.635000  11.702000  11.039000
H  9.165000  13.264000  11.211000
C  10.996000  10.685000  10.164000
H  10.245000  10.060000  9.727000
C  12.351000  10.332000  10.083000
H  12.528000  9.445000  9.448000
C  15.264000  10.031000  9.597000
H  16.336000  10.088000  9.693000
H  14.920000  8.989000  9.659000
H  14.958000  10.407000  8.575000
18
Lattice="15.954 0.0 0.0 0.0 15.954 0.0 0.0 0.0 15.954" Properties=species:S:1:pos:R:3 pbc="T T T" Time = 0.0 energy = 1.0
O  14.674000  10.813000  10.947000
C  13.292000  11.139000  10.951000
C  12.909000  12.178000  11.767000
H  13.576000  12.590000  12.510000
C  11.600000  12.572000  11.667000
H  11.279000  13.453000  12.250000
C  10.682000  11.932000  10.788000
N  9.368000  12.432000  10.543000
H  8.655000  11.731000  10.451000
H  9.145000  13.123000  11.262000
C  11.111000  10.799000  10.024000
H  10.539000  10.171000  9.388000
C  12.463000  10.446000  10.110000
H  12.854000  9.635000  9.494000
C  15.231000  10.181000  9.720000
H  16.247000  10.470000  9.663000
H  15.133000  9.067000  9.692000
H  14.738000  10.722000  8.854000
18
Lattice="15.954 0.0 0.0 0.0 15.954 0.0 0.0 0.0 15.954" Properties=species:S:1:pos:R:3 pbc="T T T" Time = 0.0 energy = 1.0
O  14.760000  10.771000  11.045000
C  13.363000  11.038000  10.990000
C  12.847000  12.042000  11.807000
H  13.519000  12.627000  12.414000
C  11.574000  12.539000  11.745000
H  11.291000  13.419000  12.417000
C  10.635000  11.942000  10.823000
N  9.298000  12.399000  10.561000
H  8.600000  11.698000  10.707000
H  9.076000  13.158000  11.244000
C  11.076000  10.798000  10.115000
H  10.367000  10.412000  9.438000
C  12.448000  10.389000  10.084000
H  12.643000  9.537000  9.394000
C  15.371000  10.242000  9.871000
H  16.404000  10.400000  10.061000
H  15.143000  9.158000  9.802000
H  15.101000  10.871000  8.947000
18
Lattice="15.954 0.0 0.0 0.0 15.954 0.0 0.0 0.0 15.954" Properties=species:S:1:pos:R:3 pbc="T T T" Time = 0.0 energy = 1.0
O  14.995000  10.404000  11.051000
C  13.623000  10.590000  10.923000
C  13.075000  11.660000  11.647000
H  13.692000  12.333000  12.249000
C  11.729000  12.063000  11.549000
H  11.420000  12.872000  12.181000
C  10.926000  11.427000  10.566000
N  9.553000  11.852000  10.208000
H  8.935000  11.086000  10.399000
H  9.278000  12.688000  10.780000
C  11.475000  10.265000  9.909000
H  10.753000  9.599000  9.318000
C  12.761000  9.841000  10.139000
H  13.186000  9.135000  9.475000
C  15.586000  9.591000  10.036000
H  16.668000  9.603000  10.319000
H  15.282000  8.556000  9.994000
H  15.396000  10.042000  9.064000
18
Lattice="15.954 0.0 0.0 0.0 15.954 0.0 0.0 0.0 15.954" Properties=species:S:1:pos:R:3 pbc="T T T" Time = 0.0 energy = 1.0
O  14.812000  10.607000  10.479000
C  13.427000  10.788000  10.656000
C  13.065000  12.000000  11.198000
H  13.770000  12.812000  11.347000
C  11.725000  12.407000  11.220000
H  11.468000  13.419000  11.509000
C  10.695000  11.447000  10.918000
N  9.304000  11.785000  10.920000
H  8.661000  10.984000  10.822000
H  8.970000  12.640000  11.404000
C  11.116000  10.200000  10.406000
H  10.358000  9.422000  10.216000
C  12.482000  9.832000  10.234000
H  12.718000  8.861000  9.769000
C  15.267000  9.469000  9.620000
H  16.353000  9.634000  9.623000
H  14.962000  8.511000  10.083000
H  14.895000  9.695000  8.587000
18
Lattice="15.954 0.0 0.0 0.0 15.954 0.0 0.0 0.0 15.954" Properties=species:S:1:pos:R:3 pbc="T T T" Time = 0.0 energy = 1.0
O  14.910000  10.939000  9.832000
C  13.534000  11.149000  10.031000
C  13.166000  12.209000  10.890000
H  13.943000  12.901000  11.265000
C  11.833000  12.522000  11.051000
H  11.502000  13.384000  11.600000
C  10.825000  11.722000  10.487000
N  9.451000  12.085000  10.609000
H  8.970000  11.370000  11.143000
H  9.251000  12.972000  11.188000
C  11.175000  10.560000  9.753000
H  10.354000  9.941000  9.260000
C  12.528000  10.226000  9.562000
H  12.810000  9.495000  8.815000
C  15.353000  9.706000  9.242000
H  16.420000  9.613000  9.561000
H  14.721000  8.965000  9.695000
H  15.394000  9.663000  8.147000
18
Lattice="15.954 0.0 0.0 0.0 15.954 0.0 0.0 0.0 15.954" Properties=species:S:1:pos:R:3 pbc="T T T" Time = 0.0 energy = 1.0
O  15.105000  10.741000  9.850000
C  13.746000  10.941000  9.997000
C  13.394000  12.132000  10.631000
H  14.228000  12.661000  11.035000
C  12.098000  12.429000  10.990000
H  11.866000  13.332000  11.581000
C  11.071000  11.533000  10.562000
N  9.728000  11.870000  10.692000
H  9.166000  11.194000  11.159000
H  9.564000  12.832000  11.155000
C  11.388000  10.326000  9.905000
H  10.651000  9.663000  9.573000
C  12.736000  10.018000  9.618000
H  12.830000  9.026000  9.222000
C  15.512000  9.555000  9.184000
H  16.588000  9.604000  9.119000
H  15.095000  8.691000  9.714000
H  14.985000  9.572000  8.165000
18
Lattice="15.954 0.0 0.0 0.0 15.954 0.0 0.0 0.0 15.954" Properties=species:S:1:pos:R:3 pbc="T T T" Time = 0.0 energy = 1.0
O  15.249000  10.633000  10.075000
C  13.893000  10.861000  10.154000
C  13.537000  12.155000  10.555000
H  14.339000  12.809000  10.866000
C  12.175000  12.475000  10.605000
H  11.900000  13.447000  11.067000
C  11.198000  11.470000  10.518000
N  9.762000  11.724000  10.666000
H  9.323000  10.860000  11.112000
H  9.556000  12.460000  11.282000
C  11.595000  10.225000  10.060000
H  10.798000  9.586000  9.874000
C  12.908000  9.905000  9.876000
H  13.231000  8.891000  9.578000
C  15.692000  9.403000  9.317000
H  16.652000  9.642000  8.882000
H  15.680000  8.532000  9.996000
H  14.954000  9.250000  8.461000
18
Lattice="15.954 0.0 0.0 0.0 15.954 0.0 0.0 0.0 15.954" Properties=species:S:1:pos:R:3 pbc="T T T" Time = 0.0 energy = 1.0
O  15.141000  11.292000  9.869000
C  13.740000  11.317000  9.822000
C  13.124000  12.410000  10.504000
H  13.745000  13.188000  10.977000
C  11.678000  12.462000  10.508000
H  11.114000  13.290000  10.905000
C  10.938000  11.389000  10.045000
N  9.530000  11.592000  10.026000
H  8.892000  10.769000  10.043000
H  9.218000  12.196000  10.732000
C  11.556000  10.292000  9.402000
H  11.023000  9.522000  8.781000
C  12.934000  10.246000  9.337000
H  13.381000  9.478000  8.748000
C  15.735000  10.176000  9.183000
H  16.829000  10.359000  9.029000
H  15.705000  9.285000  9.799000
H  15.304000  10.033000  8.214000
18
Lattice="15.954 0.0 0.0 0.0 15.954 0.0 0.0 0.0 15.954" Properties=species:S:1:pos:R:3 pbc="T T T" Time = 0.0 energy = 1.0
O  15.033000  10.769000  9.906000
C  13.653000  11.052000  9.853000
C  13.185000  12.285000  10.316000
H  13.869000  12.976000  10.836000
C  11.844000  12.528000  10.445000
H  11.604000  13.489000  10.941000
C  10.874000  11.572000  10.071000
N  9.436000  11.836000  10.104000
H  8.955000  10.983000  10.479000
H  9.249000  12.630000  10.850000
C  11.348000  10.438000  9.415000
H  10.601000  9.792000  8.849000
C  12.754000  10.185000  9.314000
H  13.101000  9.204000  8.967000
C  15.631000  9.907000  8.964000
H  16.665000  10.157000  9.150000
H  15.567000  8.836000  9.216000
H  15.398000  10.143000  7.946000
18
Lattice="15.954 0.0 0.0 0.0 15.954 0.0 0.0 0.0 15.954" Properties=species:S:1:pos:R:3 pbc="T T T" Time = 0.0 energy = 1.0
O  14.932000  10.944000  10.067000
C  13.501000  11.146000  10.148000
C  13.059000  12.439000  10.267000
H  13.855000  13.184000  10.271000
C  11.680000  12.724000  10.316000
H  11.423000  13.764000  10.582000
C  10.720000  11.709000  10.166000
N  9.355000  12.072000  10.171000
H  8.792000  11.445000  10.802000
H  9.253000  13.101000  10.435000
C  11.175000  10.404000  9.977000
H  10.405000  9.590000  9.996000
C  12.552000  10.108000  10.012000
H  12.768000  9.033000  10.166000
C  15.413000  9.593000  9.784000
H  16.472000  9.650000  9.621000
H  15.204000  8.862000  10.646000
H  14.956000  9.148000  8.858000
18
Lattice="15.954 0.0 0.0 0.0 15.954 0.0 0.0 0.0 15.954" Properties=species:S:1:pos:R:3 pbc="T T T" Time = 0.0 energy = 1.0
O  14.738000  10.856000  10.005000
C  13.334000  11.093000  10.214000
C  12.925000  12.426000  10.269000
H  13.640000  13.236000  10.028000
C  11.556000  12.709000  10.416000
H  11.248000  13.762000  10.418000
C  10.649000  11.625000  10.473000
N  9.234000  11.892000  10.362000
H  8.723000  11.202000  10.922000
H  8.902000  12.811000  10.605000
C  11.046000  10.284000  10.501000
H  10.213000  9.503000  10.597000
C  12.446000  9.992000  10.432000
H  12.763000  8.920000  10.400000
C  15.109000  9.687000  9.220000
H  16.176000  9.744000  9.178000
H  14.815000  8.736000  9.676000
H  14.773000  9.780000  8.164000
18
Lattice="15.954 0.0 0.0 0.0 15.954 0.0 0.0 0.0 15.954" Properties=species:S:1:pos:R:3 pbc="T T T" Time = 0.0 energy = 1.0
O  14.661000  10.623000  10.187000
C  13.283000  10.915000  10.319000
C  12.886000  12.324000  10.285000
H  13.585000  13.121000  10.059000
C  11.556000  12.634000  10.435000
H  11.224000  13.676000  10.465000
C  10.571000  11.624000  10.606000
N  9.125000  11.837000  10.529000
H  8.712000  11.036000  11.123000
H  8.874000  12.646000  11.151000
C  10.982000  10.265000  10.597000
H  10.272000  9.472000  10.657000
C  12.391000  9.894000  10.557000
H  12.763000  8.899000  10.702000
C  15.026000  9.950000  8.896000
H  15.894000  10.516000  8.530000
H  15.334000  8.903000  9.086000
H  14.229000  10.019000  8.190000
18
Lattice="15.954 0.0 0.0 0.0 15.954 0.0 0.0 0.0 15.954" Properties=species:S:1:pos:R:3 pbc="T T T" Time = 0.0 energy = 1.0
O  14.778000  10.558000  10.601000
C  13.391000  10.843000  10.522000
C  13.100000  12.158000  10.345000
H  13.962000  12.816000  10.397000
C  11.724000  12.542000  10.319000
H  11.506000  13.600000  10.560000
C  10.680000  11.580000  10.317000
N  9.364000  12.034000  10.373000
H  8.725000  11.320000  10.739000
H  9.229000  12.877000  10.934000
C  11.068000  10.245000  10.254000
H  10.275000  9.475000  10.224000
C  12.370000  9.839000  10.452000
H  12.721000  8.870000  10.574000
C  15.494000  10.310000  9.343000
H  15.396000  11.242000  8.825000
H  16.574000  10.073000  9.576000
H  14.998000  9.518000  8.722000
18
Lattice="15.954 0.0 0.0 0.0 15.954 0.0 0.0 0.0 15.954" Properties=species:S:1:pos:R:3 pbc="T T T" Time = 0.0 energy = 1.0
O  14.809000  10.470000  10.673000
C  13.482000  10.833000  10.501000
C  13.108000  12.204000  10.443000
H  13.768000  13.072000  10.332000
C  11.747000  12.582000  10.389000
H  11.474000  13.620000  10.149000
C  10.749000  11.574000  10.325000
N  9.369000  11.963000  10.343000
H  8.825000  11.189000  10.723000
H  9.186000  12.823000  10.906000
C  11.080000  10.239000  10.337000
H  10.328000  9.464000  10.397000
C  12.466000  9.870000  10.441000
H  12.601000  8.823000  10.486000
C  15.488000  10.384000  9.385000
H  15.604000  11.273000  8.798000
H  16.520000  10.000000  9.644000
H  15.043000  9.571000  8.818000
18
Lattice="15.954 0.0 0.0 0.0 15.954 0.0 0.0 0.0 15.954" Properties=species:S:1:pos:R:3 pbc="T T T" Time = 0.0 energy = 1.0
O  15.077000  9.961000  10.174000
C  13.757000  10.557000  10.154000
C  13.478000  11.793000  9.527000
H  14.309000  12.284000  9.029000
C  12.155000  12.304000  9.626000
H  11.965000  13.272000  9.167000
C  11.134000  11.585000  10.245000
N  9.799000  12.047000  10.327000
H  9.404000  11.558000  11.138000
H  9.828000  13.036000  10.611000
C  11.500000  10.285000  10.797000
H  10.725000  9.620000  11.096000
C  12.777000  9.776000  10.849000
H  13.123000  8.811000  11.110000
C  15.904000  10.445000  9.050000
H  16.146000  11.509000  9.044000
H  16.775000  9.770000  8.961000
H  15.313000  10.267000  8.173000
18
Lattice="15.954 0.0 0.0 0.0 15.954 0.0 0.0 0.0 15.954" Properties=species:S:1:pos:R:3 pbc="T T T" Time = 0.0 energy = 1.0
O  14.645000  11.422000  10.667000
C  13.271000  11.479000  10.767000
C  12.531000  12.700000  10.723000
H  13.028000  13.678000  10.626000
C  11.136000  12.737000  11.035000
H  10.697000  13.691000  11.296000
C  10.433000  11.532000  11.148000
N  9.031000  11.598000  11.208000
H  8.725000  11.079000  12.055000
H  8.737000  12.610000  11.371000
C  11.151000  10.310000  11.228000
H  10.627000  9.386000  11.314000
C  12.517000  10.334000  11.068000
H  13.038000  9.385000  11.117000
C  15.135000  10.759000  9.487000
H  14.785000  11.358000  8.666000
H  16.249000  10.860000  9.500000
H  14.873000  9.671000  9.366000
18
Lattice="15.954 0.0 0.0 0.0 15.954 0.0 0.0 0.0 15.954" Properties=species:S:1:pos:R:3 pbc="T T T" Time = 0.0 energy = 1.0
O  14.608000  11.618000  10.761000
C  13.261000  11.562000  10.719000
C  12.463000  12.673000  10.683000
H  12.823000  13.638000  10.603000
C  11.129000  12.512000  10.892000
H  10.527000  13.449000  11.012000
C  10.456000  11.280000  11.003000
N  9.068000  11.314000  11.193000
H  8.628000  10.659000  11.888000
H  8.772000  12.267000  11.454000
C  11.263000  10.133000  10.836000
H  10.929000  9.109000  10.973000
C  12.669000  10.320000  10.748000
H  13.271000  9.455000  10.992000
C  15.203000  11.197000  9.497000
H  14.602000  11.669000  8.675000
H  16.218000  11.537000  9.469000
H  15.192000  10.117000  9.337000
18
Lattice="15.954 0.0 0.0 0.0 15.954 0.0 0.0 0.0 15.954" Properties=species:S:1:pos:R:3 pbc="T T T" Time = 0.0 energy = 1.0
O  14.685000  11.603000  10.773000
C  13.270000  11.530000  10.738000
C  12.470000  12.686000  10.706000
H  12.960000  13.673000  10.519000
C  11.058000  12.539000  10.870000
H  10.451000  13.450000  11.006000
C  10.491000  11.258000  10.997000
N  9.064000  11.294000  11.180000
H  8.645000  10.560000  11.827000
H  8.800000  12.266000  11.507000
C  11.319000  10.124000  10.827000
H  10.875000  9.081000  10.764000
C  12.683000  10.264000  10.813000
H  13.308000  9.364000  10.789000
C  15.247000  11.246000  9.489000
H  14.739000  11.672000  8.572000
H  16.290000  11.578000  9.431000
H  15.261000  10.157000  9.446000
18
Lattice="15.954 0.0 0.0 0.0 15.954 0.0 0.0 0.0 15.954" Properties=species:S:1:pos:R:3 pbc="T T T" Time = 0.0 energy = 1.0
O  15.088000  10.985000  10.511000
C  13.759000  11.278000  10.723000
C  13.074000  12.522000  10.608000
H  13.658000  13.483000  10.392000
C  11.719000  12.630000  10.853000
H  11.201000  13.575000  10.954000
C  10.920000  11.516000  11.037000
N  9.541000  11.691000  10.895000
H  8.947000  10.943000  11.256000
H  9.168000  12.596000  11.248000
C  11.552000  10.247000  11.116000
H  10.924000  9.319000  11.045000
C  12.957000  10.158000  11.059000
H  13.430000  9.142000  11.088000
C  15.332000  10.835000  9.063000
H  15.071000  11.774000  8.617000
H  16.436000  10.698000  8.856000
H  14.704000  10.056000  8.544000
18
Lattice="15.954 0.0 0.0 0.0 15.954 0.0 0.0 0.0 15.954" Properties=species:S:1:pos:R:3 pbc="T T T" Time = 0.0 energy = 1.0
O  15.124000  11.003000  10.468000
C  13.765000  11.119000  10.738000
C  13.299000  12.409000  10.631000
H  13.966000  13.232000  10.465000
C  11.913000  12.693000  10.733000
H  11.518000  13.682000  10.484000
C  11.023000  11.646000  10.965000
N  9.597000  11.881000  10.885000
H  9.159000  11.193000  11.520000
H  9.234000  12.785000  11.299000
C  11.551000  10.365000  11.231000
H  10.839000  9.611000  11.619000
C  12.877000  10.103000  11.107000
H  13.175000  9.172000  11.506000
C  15.334000  10.685000  9.041000
H  15.068000  11.574000  8.391000
H  16.380000  10.486000  8.914000
H  14.660000  9.872000  8.708000
18
Lattice="15.954 0.0 0.0 0.0 15.954 0.0 0.0 0.0 15.954" Properties=species:S:1:pos:R:3 pbc="T T T" Time = 0.0 energy = 1.0
O  15.144000  10.954000  10.475000
C  13.739000  11.097000  10.724000
C  13.281000  12.427000  10.638000
H  14.008000  13.259000  10.575000
C  11.956000  12.710000  10.651000
H  11.496000  13.690000  10.433000
C  11.049000  11.684000  10.969000
N  9.639000  11.900000  10.900000
H  9.183000  11.145000  11.451000
H  9.309000  12.797000  11.289000
C  11.543000  10.418000  11.289000
H  10.834000  9.691000  11.623000
C  12.887000  10.102000  11.124000
H  13.207000  9.089000  11.475000
C  15.330000  10.631000  9.057000
H  15.040000  11.526000  8.536000
H  16.419000  10.445000  8.904000
H  14.699000  9.815000  8.702000
18
Lattice="15.954 0.0 0.0 0.0 15.954 0.0 0.0 0.0 15.954" Properties=species:S:1:pos:R:3 pbc="T T T" Time = 0.0 energy = 1.0
O  15.099000  10.793000  10.594000
C  13.768000  11.047000  10.696000
C  13.258000  12.326000  10.382000
H  13.960000  13.160000  10.114000
C  11.914000  12.532000  10.407000
H  11.388000  13.431000  10.002000
C  10.988000  11.508000  10.791000
N  9.626000  11.804000  10.608000
H  8.970000  11.223000  11.207000
H  9.459000  12.820000  10.793000
C  11.423000  10.244000  11.091000
H  10.770000  9.469000  11.497000
C  12.835000  10.024000  10.917000
H  13.215000  8.999000  11.173000
C  15.494000  10.184000  9.323000
H  15.803000  10.940000  8.584000
H  16.332000  9.462000  9.458000
H  14.707000  9.598000  8.896000
18
Lattice="15.954 0.0 0.0 0.0 15.954 0.0 0.0 0.0 15.954" Properties=species:S:1:pos:R:3 pbc="T T T" Time = 0.0 energy = 1.0
O  15.097000  11.740000  9.812000
C  13.756000  11.551000  10.017000
C  13.056000  12.735000  10.065000
H  13.591000  13.678000  9.856000
C  11.735000  12.715000  10.314000
H  11.171000  13.705000  10.335000
C  10.932000  11.546000  10.398000
N  9.495000  11.596000  10.500000
H  9.052000  10.798000  10.880000
H  9.192000  12.395000  11.040000
C  11.695000  10.370000  10.324000
H  11.179000  9.442000  10.500000
C  13.076000  10.328000  10.140000
H  13.701000  9.429000  10.115000
C  15.893000  10.759000  9.196000
H  16.929000  10.940000  9.529000
H  15.574000  9.741000  9.380000
H  15.895000  10.908000  8.055000
18
Lattice="15.954 0.0 0.0 0.0 15.954 0.0 0.0 0.0 15.954" Properties=species:S:1:pos:R:3 pbc="T T T" Time = 0.0 energy = 1.0
O  15.197000  11.271000  10.404000
C  13.851000  11.487000  10.479000
C  13.467000  12.820000  10.406000
H  14.231000  13.597000  10.439000
C  12.110000  13.225000  10.496000