18
Lattice="15.954 0.0 0.0 0.0 15.954 0.0 0.0 0.0 15.954" Properties=species:S:1:pos:R:3 Time=0.0 energy=1.0 pbc="T T T"
O       14.28300000      10.44800000      10.93700000
C       12.98200000      10.93300000      10.98000000
C       12.59100000      12.17600000      11.50300000
H       13.22500000      12.81400000      12.10300000
C       11.28800000      12.65500000      11.25000000
H       10.94800000      13.56200000      11.71000000
C       10.31400000      11.88300000      10.54500000
N        9.02700000      12.35500000      10.20300000
H        8.42500000      11.58400000       9.93100000
H        8.62300000      13.19300000      10.62800000
C       10.66200000      10.56700000      10.11700000
H        9.81400000       9.98100000       9.72900000
C       11.98600000      10.08100000      10.31700000
H       12.20900000       9.04200000      10.11300000
C       14.85800000      10.71800000       9.64400000
H       15.87100000      10.31900000       9.71700000
H       14.25200000      10.28500000       8.83800000
H       14.92400000      11.85400000       9.54000000
18
Lattice="15.954 0.0 0.0 0.0 15.954 0.0 0.0 0.0 15.954" Properties=species:S:1:pos:R:3 Time=0.0 energy=1.0 pbc="T T T"
O       14.32200000      10.45200000      10.93700000
C       12.92400000      10.90300000      10.92900000
C       12.60600000      12.16100000      11.41200000
H       13.38700000      12.67300000      11.94500000
C       11.24500000      12.62800000      11.32200000
H       10.92400000      13.57200000      11.73100000
C       10.35700000      11.84300000      10.54400000
N        9.06600000      12.34500000      10.32700000
H        8.31700000      11.66500000      10.25000000
H        8.76200000      13.24600000      10.72100000
C       10.69600000      10.55800000      10.10500000
H       10.02100000       9.86800000       9.56800000
C       11.99300000      10.10500000      10.33000000
H       12.38900000       9.27400000       9.79800000
C       14.92800000      10.70800000       9.64300000
H       15.94400000      10.32700000       9.59600000
H       14.32800000      10.24800000       8.85200000
H       14.95900000      11.82700000       9.41200000
18
Lattice="15.954 0.0 0.0 0.0 15.954 0.0 0.0 0.0 15.954" Properties=species:S:1:pos:R:3 Time=0.0 energy=1.0 pbc="T T T"
O       14.53800000      10.10800000      10.70500000
C       13.26200000      10.58300000      10.68800000
C       12.93100000      11.82500000      11.41000000
H       13.61600000      12.59100000      11.87200000
C       11.58100000      12.28900000      11.35800000
H       11.27000000      13.18600000      11.96900000
C       10.56900000      11.60300000      10.67800000
N        9.26200000      12.15600000      10.48400000
H        8.49400000      11.48600000      10.51000000
H        9.17900000      13.01700000      11.07000000
C       10.90800000      10.43100000       9.99100000
H       10.08200000       9.94400000       9.43700000
C       12.24700000       9.95700000       9.99700000
H       12.49600000       9.11800000       9.30900000
C       15.26700000      10.38800000       9.51100000
H       16.19900000       9.82500000       9.66100000
H       14.80500000       9.98500000       8.62800000
H       15.44200000      11.49700000       9.47500000
18
Lattice="15.954 0.0 0.0 0.0 15.954 0.0 0.0 0.0 15.954" Properties=species:S:1:pos:R:3 Time=0.0 energy=1.0 pbc="T T T"
O       15.02000000      10.14400000      11.59000000
C       13.74200000      10.64200000      11.24900000
C       13.26600000      11.74100000      11.90300000
H       13.97100000      12.25100000      12.59300000
C       11.99600000      12.24300000      11.61100000
H       11.61300000      13.15300000      12.13300000
C       11.10000000      11.63400000      10.68700000
N        9.84200000      12.20400000      10.37400000
H        9.09800000      11.47200000      10.30800000
H        9.64400000      13.09800000      10.93900000
C       11.58200000      10.46900000      10.04400000
H       10.90000000       9.92000000       9.30000000
C       12.88700000       9.96500000      10.25200000
H       13.26200000       9.14700000       9.69300000
C       15.77900000       9.50700000      10.48900000
H       16.80400000       9.39600000      10.76500000
H       15.38200000       8.42500000      10.37600000
H       15.66200000      10.06000000       9.55400000
18
Lattice="15.954 0.0 0.0 0.0 15.954 0.0 0.0 0.0 15.954" Properties=species:S:1:pos:R:3 Time=0.0 energy=1.0 pbc="T T T"
O       15.02400000      10.15700000      11.42000000
C       13.67300000      10.63400000      11.20300000
C       13.17200000      11.71900000      11.85800000
H       13.77400000      12.24400000      12.64600000
C       11.92300000      12.24100000      11.57600000
H       11.70200000      13.17300000      12.17700000
C       11.10400000      11.62800000      10.58300000
N        9.83500000      12.21500000      10.24100000
H        9.05000000      11.54200000      10.08100000
H        9.45800000      12.81200000      11.02200000
C       11.56700000      10.46000000      10.00000000
H       11.05300000       9.84700000       9.25100000
C       12.88200000      10.03500000      10.20700000
H       13.31500000       9.18600000       9.64600000
C       15.63200000       9.78900000      10.11300000
H       16.67600000       9.74800000      10.28300000
H       15.37600000       8.78500000       9.74600000
H       15.36700000      10.52900000       9.30600000
18
Lattice="15.954 0.0 0.0 0.0 15.954 0.0 0.0 0.0 15.954" Properties=species:S:1:pos:R:3 Time=0.0 energy=1.0 pbc="T T T"
O       14.67900000       9.77600000      10.89500000
C       13.38200000      10.35900000      10.76400000
C       13.16700000      11.64600000      11.33600000
H       14.02600000      12.16400000      11.81300000
C       11.92700000      12.19700000      11.28300000
H       11.85400000      13.18300000      11.81200000
C       10.90000000      11.51700000      10.64900000
N        9.69000000      12.12900000      10.45000000
H        8.89500000      11.51900000      10.26600000
H        9.47000000      12.79500000      11.18600000
C       11.16100000      10.28200000      10.00300000
H       10.38600000       9.79500000       9.47100000
C       12.38600000       9.73500000      10.05900000
H       12.57900000       8.86600000       9.39300000
C       15.50800000       9.45700000       9.81400000
H       16.46500000       9.17000000      10.22100000
H       15.08100000       8.66400000       9.23200000
H       15.69800000      10.43800000       9.23400000
18
Lattice="15.954 0.0 0.0 0.0 15.954 0.0 0.0 0.0 15.954" Properties=species:S:1:pos:R:3 Time=0.0 energy=1.0 pbc="T T T"
O       14.66200000       9.70200000      10.82500000
C       13.40900000      10.28800000      10.75400000
C       13.21700000      11.59200000      11.25200000
H       14.13300000      12.16200000      11.52600000
C       11.93200000      12.16600000      11.11000000
H       11.75000000      13.25900000      11.25700000
C       10.84500000      11.39900000      10.69100000
N        9.61300000      12.11500000      10.57300000
H        8.79900000      11.50000000      10.64600000
H        9.57500000      12.90500000      11.24600000
C       11.02600000      10.01900000      10.15500000
H       10.21500000       9.52300000       9.70500000
C       12.35600000       9.55600000      10.15400000
H       12.55700000       8.54300000       9.68000000
C       15.40800000       9.49500000       9.65200000
H       16.42800000       9.08600000       9.86100000
H       14.95000000       8.78500000       8.98000000
H       15.53200000      10.49500000       9.20500000
18
Lattice="15.954 0.0 0.0 0.0 15.954 0.0 0.0 0.0 15.954" Properties=species:S:1:pos:R:3 Time=0.0 energy=1.0 pbc="T T T"
O       15.14900000      10.16600000      10.64500000
C       13.79000000      10.61300000      10.76100000
C       13.52900000      11.90600000      11.13300000
H       14.29000000      12.64300000      11.39400000
C       12.22100000      12.35400000      11.05800000
H       12.07500000      13.39500000      11.31900000
C       11.14400000      11.55100000      10.70600000
N        9.84700000      12.00800000      10.60800000
H        9.23000000      11.23400000      10.55300000
H        9.50100000      12.74800000      11.24100000
C       11.42700000      10.16200000      10.40800000
H       10.71100000       9.47100000      10.14900000
C       12.75800000       9.71200000      10.47200000
H       12.91000000       8.67900000      10.16400000
C       15.72600000      10.57500000       9.36400000
H       16.61100000       9.97800000       9.33300000
H       14.96300000      10.22700000       8.61000000
H       15.89500000      11.66000000       9.18700000
18
Lattice="15.954 0.0 0.0 0.0 15.954 0.0 0.0 0.0 15.954" Properties=species:S:1:pos:R:3 Time=0.0 energy=1.0 pbc="T T T"
O       14.78800000       9.75700000      10.78600000
C       13.55300000      10.40300000      10.74800000
C       13.28500000      11.68600000      11.24500000
H       14.07600000      12.33100000      11.71400000
C       12.04400000      12.29700000      11.11600000
H       11.84300000      13.33500000      11.32900000
C       11.00800000      11.54300000      10.56500000
N        9.75500000      12.20400000      10.29500000
H        8.96800000      11.51000000      10.27100000
H        9.48200000      13.07100000      10.87000000
C       11.19800000      10.14400000      10.24400000
H       10.43600000       9.53600000       9.78500000
C       12.47300000       9.60200000      10.29200000
H       12.63700000       8.54900000      10.02200000
C       15.82400000      10.07600000       9.81800000
H       16.53100000       9.29300000       9.82400000
H       15.23900000      10.06100000       8.84100000
H       16.34200000      11.03500000       9.95800000
18
Lattice="15.954 0.0 0.0 0.0 15.954 0.0 0.0 0.0 15.954" Properties=species:S:1:pos:R:3 Time=0.0 energy=1.0 pbc="T T T"
O       14.20100000       9.42600000      11.03500000
C       13.05600000      10.17400000      10.91800000
C       12.96100000      11.36300000      11.59200000
H       13.83400000      11.78300000      12.14900000
C       11.85100000      12.19800000      11.42500000
H       11.82800000      13.15700000      11.89600000
C       10.71500000      11.80900000      10.63200000
N        9.58600000      12.60600000      10.31100000
H        8.74200000      12.08900000      10.07100000
H        9.41200000      13.44800000      10.85600000
C       10.82500000      10.52800000      10.06900000
H        9.97200000      10.10900000       9.63800000
C       11.97000000       9.72900000      10.18600000
H       11.93200000       8.81400000       9.56700000
C       15.16300000       9.61500000       9.97100000
H       15.78300000       8.74900000       9.88200000
H       14.55100000       9.81000000       9.06000000
H       15.71200000      10.52800000      10.28000000
18
Lattice="15.954 0.0 0.0 0.0 15.954 0.0 0.0 0.0 15.954" Properties=species:S:1:pos:R:3 Time=0.0 energy=1.0 pbc="T T T"
O       14.90900000      10.53700000      10.78900000
C       13.54600000      10.73100000      10.77100000
C       13.05800000      11.83900000      11.45300000
H       13.68200000      12.54500000      11.97800000
C       11.72900000      12.13200000      11.40500000
H       11.45000000      13.01600000      12.04300000
C       10.74900000      11.33000000      10.80000000
N        9.42200000      11.61300000      10.61700000
H        8.73700000      10.87200000      10.49400000
H        9.12200000      12.31600000      11.33600000
C       11.27100000      10.22700000      10.08400000
H       10.57700000       9.56100000       9.50600000
C       12.64400000       9.92100000      10.06400000
H       12.94300000       9.10600000       9.42000000
C       15.45900000       9.64400000       9.76100000
H       16.53800000       9.48800000       9.73400000
H       14.98600000       8.65800000       9.94900000
H       15.17000000      10.03200000       8.74100000
18
Lattice="15.954 0.0 0.0 0.0 15.954 0.0 0.0 0.0 15.954" Properties=species:S:1:pos:R:3 Time=0.0 energy=1.0 pbc="T T T"
O       15.09200000      10.66500000      10.91500000
C       13.77800000      10.87500000      10.67900000
C       13.23900000      11.98100000      11.32000000
H       13.87000000      12.67600000      11.89000000
C       11.88300000      12.29200000      11.30100000
H       11.44900000      13.14100000      11.84600000
C       10.98700000      11.47100000      10.65800000
N        9.59900000      11.76500000      10.57900000
H        9.00900000      10.94400000      10.46500000
H        9.11300000      12.47100000      11.19600000
C       11.54100000      10.29700000      10.04000000
H       10.76500000       9.57200000       9.55900000
C       12.86600000       9.93300000      10.08300000
H       13.21600000       8.97800000       9.67900000
C       15.70800000       9.81200000       9.92000000
H       16.78300000      10.03000000       9.95100000
H       15.63200000       8.74200000      10.07600000
H       15.37200000      10.08000000       8.90500000
18
Lattice="15.954 0.0 0.0 0.0 15.954 0.0 0.0 0.0 15.954" Properties=species:S:1:pos:R:3 Time=0.0 energy=1.0 pbc="T T T"
O       14.82200000      10.97100000       9.58400000
C       13.51900000      11.10100000      10.06000000
C       13.25400000      12.16600000      10.92200000
H       14.11800000      12.80200000      11.12000000
C       11.96700000      12.41200000      11.41500000
H       11.82600000      13.35700000      11.95500000
C       10.86800000      11.75400000      10.97900000
N        9.55100000      12.33000000      11.17400000
H        8.93800000      11.51800000      11.38800000
H        9.35500000      13.08000000      11.83800000
C       11.10900000      10.66800000      10.00500000
H       10.17300000      10.20300000       9.68100000
C       12.39500000      10.29100000       9.64600000
H       12.48200000       9.49700000       8.87900000
C       15.19100000       9.57700000       9.27500000
H       16.27900000       9.63000000       9.17600000
H       14.87600000       8.80200000      10.02800000
H       14.73400000       9.27700000       8.30600000
18
Lattice="15.954 0.0 0.0 0.0 15.954 0.0 0.0 0.0 15.954" Properties=species:S:1:pos:R:3 Time=0.0 energy=1.0 pbc="T T T"
O       14.78600000      10.96800000       9.83000000
C       13.48100000      11.08900000      10.19500000
C       13.18000000      12.20600000      10.93900000
H       14.02700000      12.86300000      11.16900000
C       11.81300000      12.54800000      11.28100000
H       11.70600000      13.51500000      11.82400000
C       10.74300000      11.66700000      10.97300000
N        9.44600000      12.14300000      11.13000000
H        8.87100000      11.33700000      11.39100000
H        9.31700000      12.83500000      11.91300000
C       11.03900000      10.54500000      10.18200000
H       10.30100000       9.93100000       9.71300000
C       12.36900000      10.21300000       9.81200000
H       12.49300000       9.20500000       9.34200000
C       15.16200000       9.61400000       9.44700000
H       16.19400000       9.67000000       9.17600000
H       14.96500000       8.78900000      10.18500000
H       14.71900000       9.35500000       8.46900000
18
Lattice="15.954 0.0 0.0 0.0 15.954 0.0 0.0 0.0 15.954" Properties=species:S:1:pos:R:3 Time=0.0 energy=1.0 pbc="T T T"
O       14.76400000      10.87000000      10.05100000
C       13.46600000      11.15400000      10.31200000
C       13.12000000      12.35900000      10.97000000
H       13.94300000      13.04600000      11.20800000
C       11.74100000      12.58300000      11.30600000
H       11.73200000      13.49900000      11.97000000
C       10.69800000      11.75800000      10.81400000
N        9.38300000      12.09700000      11.06100000
H        8.70700000      11.35200000      11.14400000
H        9.38500000      12.74200000      11.89800000
C       11.08600000      10.56100000      10.19600000
H       10.36300000       9.83300000       9.93500000
C       12.42600000      10.24300000       9.93000000
H       12.63300000       9.33100000       9.32500000
C       15.22900000       9.59200000       9.44900000
H       16.25100000       9.59000000       9.17600000
H       15.00100000       8.75600000      10.16900000
H       14.66000000       9.31600000       8.50900000
18
Lattice="15.954 0.0 0.0 0.0 15.954 0.0 0.0 0.0 15.954" Properties=species:S:1:pos:R:3 Time=0.0 energy=1.0 pbc="T T T"
O       14.77600000      10.89300000      10.41400000
C       13.40800000      11.13200000      10.57100000
C       13.06800000      12.37500000      11.19800000
H       13.83600000      13.07000000      11.55300000
C       11.72400000      12.63900000      11.34400000
H       11.41200000      13.64000000      11.79500000
C       10.76200000      11.79900000      10.86500000
N        9.34400000      12.22400000      10.89200000
H        8.66400000      11.42800000      11.05500000
H        9.16900000      12.95600000      11.54400000
C       11.11800000      10.63400000      10.17900000
H       10.27600000      10.07300000       9.87200000
C       12.42700000      10.27500000      10.08800000
H       12.75800000       9.35300000       9.60700000
C       15.19700000       9.80800000       9.50100000
H       16.24800000       9.66900000       9.48900000
H       14.69700000       8.89800000       9.86000000
H       14.97100000       9.98300000       8.40800000
18
Lattice="15.954 0.0 0.0 0.0 15.954 0.0 0.0 0.0 15.954" Properties=species:S:1:pos:R:3 Time=0.0 energy=1.0 pbc="T T T"
O       14.73000000      10.93700000      10.53100000
C       13.35800000      11.15400000      10.67900000
C       12.94600000      12.20700000      11.48200000
H       13.79600000      12.68600000      11.96000000
C       11.63700000      12.64600000      11.53200000
H       11.42800000      13.68100000      11.98100000
C       10.64000000      11.87200000      10.87400000
N        9.33400000      12.34400000      10.68900000
H        8.63500000      11.70200000      11.03900000
H        9.16500000      13.26400000      11.21100000
C       10.99600000      10.68500000      10.16400000
H       10.24500000      10.06000000       9.72700000
C       12.35100000      10.33200000      10.08300000
H       12.52800000       9.44500000       9.44800000
C       15.26400000      10.03100000       9.59700000
H       16.33600000      10.08800000       9.69300000
H       14.92000000       8.98900000       9.65900000
H       14.95800000      10.40700000       8.57500000
18
Lattice="15.954 0.0 0.0 0.0 15.954 0.0 0.0 0.0 15.954" Properties=species:S:1:pos:R:3 Time=0.0 energy=1.0 pbc="T T T"
O       14.67400000      10.81300000      10.94700000
C       13.29200000      11.13900000      10.95100000
C       12.90900000      12.17800000      11.76700000
H       13.57600000      12.59000000      12.51000000
C       11.60000000      12.57200000      11.66700000
H       11.27900000      13.45300000      12.25000000
C       10.68200000      11.93200000      10.78800000
N        9.36800000      12.43200000      10.54300000
H        8.65500000      11.73100000      10.45100000
H        9.14500000      13.12300000      11.26200000
C       11.11100000      10.79900000      10.02400000
H       10.53900000      10.17100000       9.38800000
C       12.46300000      10.44600000      10.11000000
H       12.85400000       9.63500000       9.49400000
C       15.23100000      10.18100000       9.72000000
H       16.24700000      10.47000000       9.66300000
H       15.13300000       9.06700000       9.69200000
H       14.73800000      10.72200000       8.85400000
18
Lattice="15.954 0.0 0.0 0.0 15.954 0.0 0.0 0.0 15.954" Properties=species:S:1:pos:R:3 Time=0.0 energy=1.0 pbc="T T T"
O       14.76000000      10.77100000      11.04500000
C       13.36300000      11.03800000      10.99000000
C       12.84700000      12.04200000      11.80700000
H       13.51900000      12.62700000      12.41400000
C       11.57400000      12.53900000      11.74500000
H       11.29100000      13.41900000      12.41700000
C       10.63500000      11.94200000      10.82300000
N        9.29800000      12.39900000      10.56100000
H        8.60000000      11.69800000      10.70700000
H        9.07600000      13.15800000      11.24400000
C       11.07600000      10.79800000      10.11500000
H       10.36700000      10.41200000       9.43800000
C       12.44800000      10.38900000      10.08400000
H       12.64300000       9.53700000       9.39400000
C       15.37100000      10.24200000       9.87100000
H       16.40400000      10.40000000      10.06100000
H       15.14300000       9.15800000       9.80200000
H       15.10100000      10.87100000       8.94700000
18
Lattice="15.954 0.0 0.0 0.0 15.954 0.0 0.0 0.0 15.954" Properties=species:S:1:pos:R:3 Time=0.0 energy=1.0 pbc="T T T"
O       14.99500000      10.40400000      11.05100000
C       13.62300000      10.59000000      10.92300000
C       13.07500000      11.66000000      11.64700000
H       13.69200000      12.33300000      12.24900000
C       11.72900000      12.06300000      11.54900000
H       11.42000000      12.87200000      12.18100000
C       10.92600000      11.42700000      10.56600000
N        9.55300000      11.85200000      10.20800000
H        8.93500000      11.08600000      10.39900000
H        9.27800000      12.68800000      10.78000000
C       11.47500000      10.26500000       9.90900000
H       10.75300000       9.59900000       9.31800000
C       12.76100000       9.84100000      10.13900000
H       13.18600000       9.13500000       9.47500000
C       15.58600000       9.59100000      10.03600000
H       16.66800000       9.60300000      10.31900000
H       15.28200000       8.55600000       9.99400000
H       15.39600000      10.04200000       9.06400000
18
Lattice="15.954 0.0 0.0 0.0 15.954 0.0 0.0 0.0 15.954" Properties=species:S:1:pos:R:3 Time=0.0 energy=1.0 pbc="T T T"
O       14.81200000      10.60700000      10.47900000
C       13.42700000      10.78800000      10.65600000
C       13.06500000      12.00000000      11.19800000
H       13.77000000      12.81200000      11.34700000
C       11.72500000      12.40700000      11.22000000
H       11.46800000      13.41900000      11.50900000
C       10.69500000      11.44700000      10.91800000
N        9.30400000      11.78500000      10.92000000
H        8.66100000      10.98400000      10.82200000
H        8.97000000      12.64000000      11.40400000
C       11.11600000      10.20000000      10.40600000
H       10.35800000       9.42200000      10.21600000
C       12.48200000       9.83200000      10.23400000
H       12.71800000       8.86100000       9.76900000
C       15.26700000       9.46900000       9.62000000
H       16.35300000       9.63400000       9.62300000
H       14.96200000       8.51100000      10.08300000
H       14.89500000       9.69500000       8.58700000
18
Lattice="15.954 0.0 0.0 0.0 15.954 0.0 0.0 0.0 15.954" Properties=species:S:1:pos:R:3 Time=0.0 energy=1.0 pbc="T T T"
O       14.91000000      10.93900000       9.83200000
C       13.53400000      11.14900000      10.03100000
C       13.16600000      12.20900000      10.89000000
H       13.94300000      12.90100000      11.26500000
C       11.83300000      12.52200000      11.05100000
H       11.50200000      13.38400000      11.60000000
C       10.82500000      11.72200000      10.48700000
N        9.45100000      12.08500000      10.60900000
H        8.97000000      11.37000000      11.14300000
H        9.25100000      12.97200000      11.18800000
C       11.17500000      10.56000000       9.75300000
H       10.35400000       9.94100000       9.26000000
C       12.52800000      10.22600000       9.56200000
H       12.81000000       9.49500000       8.81500000
C       15.35300000       9.70600000       9.24200000
H       16.42000000       9.61300000       9.56100000
H       14.72100000       8.96500000       9.69500000
H       15.39400000       9.66300000       8.14700000
18
Lattice="15.954 0.0 0.0 0.0 15.954 0.0 0.0 0.0 15.954" Properties=species:S:1:pos:R:3 Time=0.0 energy=1.0 pbc="T T T"
O       15.10500000      10.74100000       9.85000000
C       13.74600000      10.94100000       9.99700000
C       13.39400000      12.13200000      10.63100000
H       14.22800000      12.66100000      11.03500000
C       12.09800000      12.42900000      10.99000000
H       11.86600000      13.33200000      11.58100000
C       11.07100000      11.53300000      10.56200000
N        9.72800000      11.87000000      10.69200000
H        9.16600000      11.19400000      11.15900000
H        9.56400000      12.83200000      11.15500000
C       11.38800000      10.32600000       9.90500000
H       10.65100000       9.66300000       9.57300000
C       12.73600000      10.01800000       9.61800000
H       12.83000000       9.02600000       9.22200000
C       15.51200000       9.55500000       9.18400000
H       16.58800000       9.60400000       9.11900000
H       15.09500000       8.69100000       9.71400000
H       14.98500000       9.57200000       8.16500000
18
Lattice="15.954 0.0 0.0 0.0 15.954 0.0 0.0 0.0 15.954" Properties=species:S:1:pos:R:3 Time=0.0 energy=1.0 pbc="T T T"
O       15.24900000      10.63300000      10.07500000
C       13.89300000      10.86100000      10.15400000
C       13.53700000      12.15500000      10.55500000
H       14.33900000      12.80900000      10.86600000
C       12.17500000      12.47500000      10.60500000
H       11.90000000      13.44700000      11.06700000
C       11.19800000      11.47000000      10.51800000
N        9.76200000      11.72400000      10.66600000
H        9.32300000      10.86000000      11.11200000
H        9.55600000      12.46000000      11.28200000
C       11.59500000      10.22500000      10.06000000
H       10.79800000       9.58600000       9.87400000
C       12.90800000       9.90500000       9.87600000
H       13.23100000       8.89100000       9.57800000
C       15.69200000       9.40300000       9.31700000
H       16.65200000       9.64200000       8.88200000
H       15.68000000       8.53200000       9.99600000
H       14.95400000       9.25000000       8.46100000
18
Lattice="15.954 0.0 0.0 0.0 15.954 0.0 0.0 0.0 15.954" Properties=species:S:1:pos:R:3 Time=0.0 energy=1.0 pbc="T T T"
O       15.14100000      11.29200000       9.86900000
C       13.74000000      11.31700000       9.82200000
C       13.12400000      12.41000000      10.50400000
H       13.74500000      13.18800000      10.97700000
C       11.67800000      12.46200000      10.50800000
H       11.11400000      13.29000000      10.90500000
C       10.93800000      11.38900000      10.04500000
N        9.53000000      11.59200000      10.02600000
H        8.89200000      10.76900000      10.04300000
H        9.21800000      12.19600000      10.73200000
C       11.55600000      10.29200000       9.40200000
H       11.02300000       9.52200000       8.78100000
C       12.93400000      10.24600000       9.33700000
H       13.38100000       9.47800000       8.74800000
C       15.73500000      10.17600000       9.18300000
H       16.82900000      10.35900000       9.02900000
H       15.70500000       9.28500000       9.79900000
H       15.30400000      10.03300000       8.21400000
18
Lattice="15.954 0.0 0.0 0.0 15.954 0.0 0.0 0.0 15.954" Properties=species:S:1:pos:R:3 Time=0.0 energy=1.0 pbc="T T T"
O       15.03300000      10.76900000       9.90600000
C       13.65300000      11.05200000       9.85300000
C       13.18500000      12.28500000      10.31600000
H       13.86900000      12.97600000      10.83600000
C       11.84400000      12.52800000      10.44500000
H       11.60400000      13.48900000      10.94100000
C       10.87400000      11.57200000      10.07100000
N        9.43600000      11.83600000      10.10400000
H        8.95500000      10.98300000      10.47900000
H        9.24900000      12.63000000      10.85000000
C       11.34800000      10.43800000       9.41500000
H       10.60100000       9.79200000       8.84900000
C       12.75400000      10.18500000       9.31400000
H       13.10100000       9.20400000       8.96700000
C       15.63100000       9.90700000       8.96400000
H       16.66500000      10.15700000       9.15000000
H       15.56700000       8.83600000       9.21600000
H       15.39800000      10.14300000       7.94600000
18
Lattice="15.954 0.0 0.0 0.0 15.954 0.0 0.0 0.0 15.954" Properties=species:S:1:pos:R:3 Time=0.0 energy=1.0 pbc="T T T"
O       14.93200000      10.94400000      10.06700000
C       13.50100000      11.14600000      10.14800000
C       13.05900000      12.43900000      10.26700000
H       13.85500000      13.18400000      10.27100000
C       11.68000000      12.72400000      10.31600000
H       11.42300000      13.76400000      10.58200000
C       10.72000000      11.70900000      10.16600000
N        9.35500000      12.07200000      10.17100000
H        8.79200000      11.44500000      10.80200000
H        9.25300000      13.10100000      10.43500000
C       11.17500000      10.40400000       9.97700000
H       10.40500000       9.59000000       9.99600000
C       12.55200000      10.10800000      10.01200000
H       12.76800000       9.03300000      10.16600000
C       15.41300000       9.59300000       9.78400000
H       16.47200000       9.65000000       9.62100000
H       15.20400000       8.86200000      10.64600000
H       14.95600000       9.14800000       8.85800000
18
Lattice="15.954 0.0 0.0 0.0 15.954 0.0 0.0 0.0 15.954" Properties=species:S:1:pos:R:3 Time=0.0 energy=1.0 pbc="T T T"
O       14.73800000      10.85600000      10.00500000
C       13.33400000      11.09300000      10.21400000
C       12.92500000      12.42600000      10.26900000
H       13.64000000      13.23600000      10.02800000
C       11.55600000      12.70900000      10.41600000
H       11.24800000      13.76200000      10.41800000