17
Lattice="12.8 0.0 0.0 0.0 12.8 0.0 0.0 0.0 12.8" Properties=species:S:1:pos:R:3 Time=0.0 energy=1.0 pbc="T T T"
H        5.87400000      10.88300000       7.43700000
C        5.41000000       9.97300000       7.15200000
C        4.19100000      10.00800000       6.49200000
H        3.50000000      10.86600000       6.56500000
C        3.59900000       8.82300000       6.04700000
H        2.63100000       8.88200000       5.64000000
C        4.37800000       7.62400000       6.00200000
O        4.04000000       6.36800000       5.52700000
C        5.70800000       7.60900000       6.54900000
C        6.18300000       8.79300000       7.09200000
H        7.07200000       8.78100000       7.64300000
O        6.47000000       6.47000000       6.47000000
H        7.42500000       6.65400000       6.64000000
C        2.74500000       6.12000000       4.90300000
H        2.50600000       6.74500000       4.01400000
H        1.87800000       6.16500000       5.59100000
H        2.75900000       5.04900000       4.57900000
17
Lattice="12.8 0.0 0.0 0.0 12.8 0.0 0.0 0.0 12.8" Properties=species:S:1:pos:R:3 Time=0.0 energy=1.0 pbc="T T T"
H        6.29400000      10.92500000       7.21000000
C        5.74100000      10.03200000       6.95600000
C        4.39800000      10.09500000       6.71000000
H        3.88900000      11.06000000       6.75000000
C        3.71100000       8.87500000       6.35900000
H        2.65500000       8.82400000       6.16300000
C        4.48700000       7.75400000       6.06200000
O        3.90400000       6.70200000       5.35100000
C        5.83400000       7.69300000       6.48700000
C        6.42400000       8.79100000       7.11900000
H        7.45300000       8.74500000       7.47700000
O        6.47000000       6.47000000       6.47000000
H        7.42300000       6.53400000       6.29200000
C        2.68400000       6.97900000       4.50400000
H        2.88200000       7.78700000       3.76900000
H        1.86700000       7.26600000       5.19700000
H        2.54300000       6.01700000       3.97900000
17
Lattice="12.8 0.0 0.0 0.0 12.8 0.0 0.0 0.0 12.8" Properties=species:S:1:pos:R:3 Time=0.0 energy=1.0 pbc="T T T"
H        6.83800000      10.58600000       8.21500000
C        6.18400000       9.77100000       7.93100000
C        4.90500000      10.16500000       7.49000000
H        4.53500000      11.18300000       7.60500000
C        4.05200000       9.13100000       6.99000000
H        3.04100000       9.37100000       6.59200000
C        4.56700000       7.86100000       6.79200000
O        3.94700000       6.80800000       6.08800000
C        5.95300000       7.55200000       7.05600000
C        6.74800000       8.52100000       7.64600000
H        7.79200000       8.25800000       7.90200000
O        6.47000000       6.47000000       6.47000000
H        7.45100000       6.66600000       6.30500000
C        2.85900000       7.07400000       5.19100000
H        2.97800000       8.07800000       4.68700000
H        1.94300000       7.02300000       5.82700000
H        2.87600000       6.23200000       4.45800000
17
Lattice="12.8 0.0 0.0 0.0 12.8 0.0 0.0 0.0 12.8" Properties=species:S:1:pos:R:3 Time=0.0 energy=1.0 pbc="T T T"
H        6.77600000      10.66300000       8.48700000
C        6.19500000       9.89900000       7.98600000
C        4.86000000      10.14900000       7.70900000
H        4.27200000      10.93900000       8.21900000
C        4.07600000       9.24300000       6.98500000
H        3.06300000       9.49900000       6.81200000
C        4.56300000       8.00800000       6.51000000
O        3.77300000       7.02200000       6.01200000
C        5.94100000       7.69900000       6.82700000
C        6.77100000       8.66900000       7.44500000
H        7.74800000       8.38300000       7.66900000
O        6.47000000       6.47000000       6.47000000
H        7.46800000       6.53400000       6.37300000
C        2.52400000       7.37900000       5.47000000
H        2.59800000       7.97200000       4.54800000
H        1.98200000       7.93100000       6.23700000
H        2.02200000       6.41500000       5.17700000
17
Lattice="12.8 0.0 0.0 0.0 12.8 0.0 0.0 0.0 12.8" Properties=species:S:1:pos:R:3 Time=0.0 energy=1.0 pbc="T T T"
H        6.74000000      10.39200000       8.82500000
C        6.15500000       9.77600000       8.16400000
C        4.88000000      10.15600000       7.79400000
H        4.53000000      11.16500000       7.88700000
C        4.06800000       9.27400000       7.04900000
H        3.01600000       9.60300000       6.83500000
C        4.57200000       8.03900000       6.67000000
O        3.87800000       7.07600000       5.98800000
C        5.92700000       7.69500000       6.88700000
C        6.68900000       8.54200000       7.72200000
H        7.78700000       8.31900000       7.88900000
O        6.47000000       6.47000000       6.47000000
H        7.52500000       6.32200000       6.69500000
C        2.63800000       7.36100000       5.32600000
H        2.79900000       7.74300000       4.29500000
H        2.00100000       8.12100000       5.87000000
H        2.07900000       6.41200000       5.21500000
17
Lattice="12.8 0.0 0.0 0.0 12.8 0.0 0.0 0.0 12.8" Properties=species:S:1:pos:R:3 Time=0.0 energy=1.0 pbc="T T T"
H        6.63100000      10.35300000       8.90500000
C        6.11900000       9.68500000       8.24400000
C        4.70900000       9.86900000       8.06400000
H        4.22100000      10.78000000       8.38900000
C        4.03900000       8.99200000       7.19700000
H        3.00700000       9.11000000       6.95200000
C        4.54900000       7.75200000       6.84500000
O        3.84200000       6.72400000       6.28600000
C        5.95800000       7.56400000       7.07100000
C        6.70800000       8.49000000       7.79000000
H        7.80000000       8.31600000       7.89600000
O        6.47000000       6.47000000       6.47000000
H        7.42500000       6.30800000       6.72000000
C        2.75000000       7.15100000       5.46000000
H        3.15900000       7.67500000       4.55100000
H        2.03300000       7.85900000       5.95700000
H        2.21100000       6.29000000       5.08900000
17
Lattice="12.8 0.0 0.0 0.0 12.8 0.0 0.0 0.0 12.8" Properties=species:S:1:pos:R:3 Time=0.0 energy=1.0 pbc="T T T"
H        6.51900000      10.70100000       8.56500000
C        5.96700000       9.86500000       8.18700000
C        4.58700000       9.82200000       8.17100000
H        3.93100000      10.57600000       8.58400000
C        3.86700000       8.80700000       7.51100000
H        2.79300000       8.89000000       7.44500000
C        4.55100000       7.68300000       6.97700000
O        3.89200000       6.69800000       6.29000000
C        5.92900000       7.58700000       7.11900000
C        6.67400000       8.68500000       7.72800000
H        7.78900000       8.74600000       7.74100000
O        6.47000000       6.47000000       6.47000000
H        7.47600000       6.35400000       6.73100000
C        2.91500000       6.91300000       5.32600000
H        2.97900000       7.86500000       4.74500000
H        1.89800000       6.82900000       5.78600000
H        3.05700000       6.05800000       4.68200000
17
Lattice="12.8 0.0 0.0 0.0 12.8 0.0 0.0 0.0 12.8" Properties=species:S:1:pos:R:3 Time=0.0 energy=1.0 pbc="T T T"
H        5.91300000      10.60300000       8.49400000
C        5.62100000       9.82600000       7.70400000
C        4.40600000      10.00500000       7.01100000
H        3.75900000      10.90600000       7.25000000
C        3.84900000       9.02600000       6.16500000
H        2.83700000       9.21900000       5.76900000
C        4.55500000       7.83400000       5.87300000
O        4.16400000       6.77900000       5.09400000
C        5.81500000       7.66500000       6.53700000
C        6.40400000       8.70900000       7.34000000
H        7.36700000       8.48400000       7.74600000
O        6.47000000       6.47000000       6.47000000
H        7.45000000       6.56000000       6.67100000
C        2.81200000       6.70100000       4.74800000
H        2.50800000       7.57100000       4.10000000
H        2.28100000       6.66200000       5.72500000
H        2.71800000       5.76000000       4.21000000
17
Lattice="12.8 0.0 0.0 0.0 12.8 0.0 0.0 0.0 12.8" Properties=species:S:1:pos:R:3 Time=0.0 energy=1.0 pbc="T T T"
H        6.88100000      10.76600000       7.19300000
C        6.22200000      10.07500000       6.76000000
C        5.07600000      10.39800000       5.98700000
H        4.89900000      11.41100000       5.76700000
C        4.33300000       9.33500000       5.44900000
H        3.49800000       9.59800000       4.80300000
C        4.87000000       8.04600000       5.49800000
O        4.42800000       7.03100000       4.64800000
C        6.00600000       7.76600000       6.27100000
C        6.64000000       8.79800000       6.91100000
H        7.55300000       8.60300000       7.48300000
O        6.47000000       6.47000000       6.47000000
H        7.48500000       6.42800000       6.49200000
C        3.78900000       7.49000000       3.39300000
H        4.36200000       8.28300000       2.89900000
H        2.75000000       7.78100000       3.54600000
H        3.75500000       6.58400000       2.72200000
17
Lattice="12.8 0.0 0.0 0.0 12.8 0.0 0.0 0.0 12.8" Properties=species:S:1:pos:R:3 Time=0.0 energy=1.0 pbc="T T T"
H        6.99700000      10.90000000       7.35400000
C        6.46100000      10.14100000       6.79300000
C        5.33200000      10.55900000       6.02000000
H        4.98900000      11.61900000       5.95200000
C        4.79600000       9.55200000       5.16600000
H        3.99300000       9.73600000       4.40600000
C        5.23800000       8.23400000       5.30000000
O        4.73100000       7.19900000       4.55600000
C        6.22300000       7.83500000       6.24100000
C        6.84900000       8.83000000       6.95300000
H        7.77600000       8.64400000       7.54100000
O        6.47000000       6.47000000       6.47000000
H        7.48700000       6.47200000       6.31200000
C        4.07700000       7.55300000       3.34700000
H        4.71000000       8.25200000       2.76000000
H        3.10100000       8.00600000       3.57400000
H        3.97800000       6.58400000       2.82800000
17
Lattice="12.8 0.0 0.0 0.0 12.8 0.0 0.0 0.0 12.8" Properties=species:S:1:pos:R:3 Time=0.0 energy=1.0 pbc="T T T"
H        6.63900000      10.83800000       7.93200000
C        6.17400000      10.08700000       7.28800000
C        5.32100000      10.40500000       6.23700000
H        5.17500000      11.47800000       6.05500000
C        4.79300000       9.49600000       5.34400000
H        4.11500000       9.91900000       4.56400000
C        5.07900000       8.14200000       5.53600000
O        4.61000000       7.10800000       4.76000000
C        5.98200000       7.76100000       6.51000000
C        6.37100000       8.69200000       7.49600000
H        7.06500000       8.17100000       8.21700000
O        6.47000000       6.47000000       6.47000000
H        7.47000000       6.59200000       6.45600000
C        3.70100000       7.36100000       3.64800000
H        4.22800000       7.96500000       2.89200000
H        2.77000000       7.83200000       3.97800000
H        3.42600000       6.35600000       3.25000000
17
Lattice="12.8 0.0 0.0 0.0 12.8 0.0 0.0 0.0 12.8" Properties=species:S:1:pos:R:3 Time=0.0 energy=1.0 pbc="T T T"
H        5.29500000      10.81800000       7.59800000
C        4.92500000       9.81200000       7.29100000
C        3.57200000       9.62800000       6.88900000
H        2.87000000      10.38400000       7.26300000
C        3.33600000       8.42600000       6.22000000
H        2.43400000       8.25200000       5.60100000
C        4.29500000       7.41900000       6.03900000
O        4.03300000       6.19400000       5.47200000
C        5.56500000       7.51700000       6.58200000
C        5.90300000       8.75400000       7.12900000
H        6.94600000       8.93800000       7.49100000
O        6.47000000       6.47000000       6.47000000
H        7.41300000       6.73400000       6.79300000
C        3.05400000       6.24600000       4.44000000
H        3.34300000       6.98100000       3.68400000
H        2.05900000       6.50000000       4.81400000
H        3.07000000       5.22000000       4.01300000
17
Lattice="12.8 0.0 0.0 0.0 12.8 0.0 0.0 0.0 12.8" Properties=species:S:1:pos:R:3 Time=0.0 energy=1.0 pbc="T T T"
H        5.97000000      10.94700000       7.08500000
C        5.54600000      10.10100000       6.59600000
C        4.45900000      10.06400000       5.70200000
H        4.01800000      10.97000000       5.28000000
C        3.96800000       8.87500000       5.24100000
H        3.03500000       8.82900000       4.71400000
C        4.54800000       7.65300000       5.56600000
O        4.17400000       6.46100000       4.92800000
C        5.79100000       7.65900000       6.35500000
C        6.20200000       8.87000000       6.85700000
H        7.14800000       8.97400000       7.41000000
O        6.47000000       6.47000000       6.47000000
H        7.43100000       6.61800000       6.58000000
C        3.10700000       6.62900000       3.94200000
H        3.36200000       7.38100000       3.17200000
H        2.16700000       6.93000000       4.45700000
H        2.94100000       5.67800000       3.47900000
17
Lattice="12.8 0.0 0.0 0.0 12.8 0.0 0.0 0.0 12.8" Properties=species:S:1:pos:R:3 Time=0.0 energy=1.0 pbc="T T T"
H        4.83500000      10.12700000       8.66900000
C        4.80500000       9.56800000       7.75500000
C        3.79100000       9.69300000       6.76400000
H        3.16900000      10.53500000       6.82200000
C        3.69100000       8.79900000       5.70800000
H        2.99300000       9.00400000       4.91500000
C        4.61400000       7.75600000       5.52300000
O        4.68700000       6.89700000       4.41300000
C        5.59700000       7.55800000       6.47600000
C        5.69800000       8.45500000       7.59000000
H        6.46900000       8.22800000       8.33300000
O        6.47000000       6.47000000       6.47000000
H        7.46000000       6.76900000       6.50900000
C        3.39700000       6.52400000       3.89100000
H        2.90200000       7.25000000       3.22800000
H        2.75600000       6.33000000       4.77000000
H        3.46300000       5.56500000       3.37400000
17
Lattice="12.8 0.0 0.0 0.0 12.8 0.0 0.0 0.0 12.8" Properties=species:S:1:pos:R:3 Time=0.0 energy=1.0 pbc="T T T"
H        5.75600000      10.48800000       8.55500000
C        5.64900000       9.83800000       7.64600000
C        4.56600000      10.05900000       6.81900000
H        4.00100000      10.96600000       7.11100000
C        4.08800000       9.16500000       5.90500000
H        3.29700000       9.44000000       5.20700000
C        4.72600000       7.93300000       5.90600000
O        4.39000000       6.82300000       5.19900000
C        5.87600000       7.66700000       6.65300000
C        6.38500000       8.62100000       7.55600000
H        7.15500000       8.32300000       8.25700000
O        6.47000000       6.47000000       6.47000000
H        7.46400000       6.66700000       6.49300000
C        3.25400000       7.03700000       4.26200000
H        3.56100000       7.69800000       3.43500000
H        2.34200000       7.40700000       4.78600000
H        3.02600000       6.04800000       3.87700000
17
Lattice="12.8 0.0 0.0 0.0 12.8 0.0 0.0 0.0 12.8" Properties=species:S:1:pos:R:3 Time=0.0 energy=1.0 pbc="T T T"
H        6.00700000      10.72200000       7.99500000
C        5.44800000       9.95100000       7.41800000
C        4.32700000      10.12600000       6.60300000
H        3.71200000      11.06300000       6.56200000
C        3.93000000       9.06600000       5.76200000
H        3.04600000       9.13000000       5.11000000
C        4.70900000       7.90800000       5.63300000
O        4.42100000       6.87100000       4.77000000
C        5.80100000       7.66600000       6.51700000
C        6.16200000       8.73400000       7.34700000
H        7.13000000       8.66500000       7.84500000
O        6.47000000       6.47000000       6.47000000
H        7.41600000       6.58700000       6.54600000
C        3.00100000       6.62000000       4.46900000
H        2.48000000       7.44300000       3.95200000
H        2.44700000       6.48300000       5.41200000
H        2.97000000       5.76300000       3.81900000
17
Lattice="12.8 0.0 0.0 0.0 12.8 0.0 0.0 0.0 12.8" Properties=species:S:1:pos:R:3 Time=0.0 energy=1.0 pbc="T T T"
H        6.03000000      10.70800000       7.98300000
C        5.43700000       9.96000000       7.42000000
C        4.31400000      10.11900000       6.60600000
H        3.72300000      11.04800000       6.55000000
C        3.93100000       9.05800000       5.76700000
H        3.05900000       9.14800000       5.12600000
C        4.70800000       7.88900000       5.64000000
O        4.41700000       6.85600000       4.76600000
C        5.80500000       7.65500000       6.51100000
C        6.16100000       8.72800000       7.35200000
H        7.11600000       8.66000000       7.84600000
O        6.47000000       6.47000000       6.47000000
H        7.41900000       6.60200000       6.54300000
C        3.00300000       6.61000000       4.47000000
H        2.48800000       7.42800000       3.95500000
H        2.46000000       6.46400000       5.41700000
H        2.98200000       5.75500000       3.82200000
17
Lattice="12.8 0.0 0.0 0.0 12.8 0.0 0.0 0.0 12.8" Properties=species:S:1:pos:R:3 Time=0.0 energy=1.0 pbc="T T T"
H        5.36000000      10.50500000       8.50900000
C        5.20500000       9.70400000       7.75700000
C        3.94900000       9.68300000       7.07300000
H        3.26500000      10.48600000       7.17900000
C        3.54700000       8.61500000       6.25400000
H        2.75500000       8.65900000       5.50200000
C        4.35900000       7.47300000       6.05200000
O        4.01600000       6.28600000       5.43900000
C        5.62500000       7.54500000       6.72100000
C        6.00700000       8.55900000       7.61400000
H        6.94900000       8.52700000       8.15900000
O        6.47000000       6.47000000       6.47000000
H        7.41800000       6.72600000       6.73400000
C        2.64600000       6.16400000       4.98400000
H        2.35700000       6.89700000       4.21100000
H        1.96500000       6.29000000       5.83500000
H        2.51100000       5.16400000       4.55500000
17
Lattice="12.8 0.0 0.0 0.0 12.8 0.0 0.0 0.0 12.8" Properties=species:S:1:pos:R:3 Time=0.0 energy=1.0 pbc="T T T"
H        5.17000000      10.62400000       8.04900000
C        5.01200000       9.72200000       7.43100000
C        3.73200000       9.54300000       6.91600000
H        2.96800000      10.23800000       7.16300000
C        3.40500000       8.43900000       6.15100000
H        2.43100000       8.39900000       5.63200000
C        4.37700000       7.43000000       5.91500000
O        4.15100000       6.23000000       5.24600000
C        5.64000000       7.54800000       6.56900000
C        5.94400000       8.69100000       7.26500000
H        6.95900000       8.80300000       7.61900000
O        6.47000000       6.47000000       6.47000000
H        7.38400000       6.65900000       6.76600000
C        2.77400000       6.04700000       4.75700000
H        2.33400000       6.86500000       4.17400000
H        2.06100000       5.84900000       5.59300000
H        2.81100000       5.15500000       4.11200000
17
Lattice="12.8 0.0 0.0 0.0 12.8 0.0 0.0 0.0 12.8" Properties=species:S:1:pos:R:3 Time=0.0 energy=1.0 pbc="T T T"
H        5.42600000      10.52700000       8.25400000
C        5.07100000       9.59000000       7.78700000
C        3.79400000       9.55500000       7.19600000
H        3.10200000      10.32800000       7.41600000
C        3.43900000       8.45800000       6.36700000
H        2.38300000       8.32200000       6.10800000
C        4.33100000       7.39800000       6.22000000
O        4.04400000       6.17600000       5.62700000
C        5.61900000       7.48200000       6.77800000
C        5.99900000       8.58900000       7.54200000
H        6.96600000       8.56500000       8.02300000
O        6.47000000       6.47000000       6.47000000
H        7.43000000       6.72100000       6.76500000
C        2.67600000       6.02900000       5.01700000
H        2.50500000       6.60100000       4.10400000
H        1.92000000       6.25400000       5.79700000
H        2.67700000       4.98200000       4.69800000
17
Lattice="12.8 0.0 0.0 0.0 12.8 0.0 0.0 0.0 12.8" Properties=species:S:1:pos:R:3 Time=0.0 energy=1.0 pbc="T T T"
H        5.39000000      10.53000000       8.25700000
C        5.08900000       9.63300000       7.72500000
C        3.81800000       9.58300000       7.18300000
H        3.06400000      10.34000000       7.48100000
C        3.48000000       8.50500000       6.33800000
H        2.43800000       8.43500000       5.99500000
C        4.34200000       7.42700000       6.18300000
O        3.99800000       6.20300000       5.58400000
C        5.65200000       7.50900000       6.70300000
C        6.04300000       8.59700000       7.48000000
H        7.03500000       8.58700000       7.98400000
O        6.47000000       6.47000000       6.47000000
H        7.41200000       6.77900000       6.70900000
C        2.71500000       6.06900000       4.99100000
H        2.65600000       6.72000000       4.09500000
H        1.97500000       6.32700000       5.75900000
H        2.61900000       4.99900000       4.75100000
17
Lattice="12.8 0.0 0.0 0.0 12.8 0.0 0.0 0.0 12.8" Properties=species:S:1:pos:R:3 Time=0.0 energy=1.0 pbc="T T T"
H        5.46200000      10.66100000       8.15500000
C        5.21600000       9.78400000       7.51800000
C        3.93400000       9.77100000       6.96300000
H        3.25200000      10.58600000       6.99400000
C        3.46200000       8.60400000       6.37000000
H        2.46600000       8.61000000       5.93500000
C        4.31000000       7.49900000       6.15000000
O        3.87300000       6.38300000       5.45600000
C        5.62800000       7.52100000       6.69000000
C        6.06000000       8.66000000       7.41700000
H        7.09400000       8.75700000       7.70300000
O        6.47000000       6.47000000       6.47000000
H        7.43700000       6.62500000       6.68200000
C        2.57000000       6.34600000       4.96400000
H        2.23700000       7.24100000       4.44200000
H        1.87500000       6.13600000       5.80700000
H        2.53300000       5.45200000       4.33500000
17
Lattice="12.8 0.0 0.0 0.0 12.8 0.0 0.0 0.0 12.8" Properties=species:S:1:pos:R:3 Time=0.0 energy=1.0 pbc="T T T"
H        5.54500000      10.72500000       8.11200000
C        5.24700000       9.83200000       7.61200000
C        3.96200000       9.79500000       7.09900000
H        3.21800000      10.61800000       7.18000000
C        3.53300000       8.66400000       6.34000000
H        2.49000000       8.71200000       6.00000000
C        4.37300000       7.56600000       6.19500000
O        4.02500000       6.35700000       5.64000000
C        5.71300000       7.58600000       6.66600000
C        6.11200000       8.71500000       7.45400000
H        7.18700000       8.81500000       7.72800000
O        6.47000000       6.47000000       6.47000000
H        7.47300000       6.59300000       6.68600000
C        2.73400000       6.27100000       5.12500000
H        2.48600000       7.15800000       4.49300000
H        2.06900000       6.22200000       5.99700000
H        2.72700000       5.35800000       4.51400000
17
Lattice="12.8 0.0 0.0 0.0 12.8 0.0 0.0 0.0 12.8" Properties=species:S:1:pos:R:3 Time=0.0 energy=1.0 pbc="T T T"
H        6.22900000      10.87000000       7.86800000
C        5.77100000       9.96900000       7.34500000
C        4.56400000      10.16000000       6.62900000
H        4.03100000      11.11100000       6.60100000
C        3.92600000       9.07800000       5.99700000
H        2.91300000       9.16300000       5.56700000
C        4.64300000       7.88800000       5.88000000
O        4.08200000       6.75200000       5.21900000
C        5.86400000       7.69800000       6.52900000
C        6.48100000       8.74000000       7.24200000
H        7.43200000       8.54900000       7.77000000
O        6.47000000       6.47000000       6.47000000
H        7.44200000       6.67900000       6.65400000
C        2.62400000       6.73700000       5.26300000
H        2.16500000       7.45000000       4.51800000
H        2.30200000       6.96700000       6.31700000
H        2.31200000       5.69000000       5.03400000
17
Lattice="12.8 0.0 0.0 0.0 12.8 0.0 0.0 0.0 12.8" Properties=species:S:1:pos:R:3 Time=0.0 energy=1.0 pbc="T T T"
H        5.83600000      10.56100000       8.38100000
C        5.40900000       9.80900000       7.71400000
C        4.15800000       9.93700000       7.08600000
H        3.71200000      10.89000000       6.98100000
C        3.68100000       8.86800000       6.26900000
H        2.79000000       9.00300000       5.65200000
C        4.45100000       7.70000000       6.08300000
O        4.03100000       6.59800000       5.37100000
C        5.77000000       7.64400000       6.60400000
C        6.17200000       8.66200000       7.48100000
H        7.11200000       8.57400000       8.01000000
O        6.47000000       6.47000000       6.47000000
H        7.41100000       6.78100000       6.75200000
C        2.68300000       6.64500000       4.76000000
H        2.53100000       7.47000000       4.09500000
H        1.86600000       6.67400000       5.49800000
H        2.60200000       5.71100000       4.21600000
17
Lattice="12.8 0.0 0.0 0.0 12.8 0.0 0.0 0.0 12.8" Properties=species:S:1:pos:R:3 Time=0.0 energy=1.0 pbc="T T T"
H        5.64100000      10.51700000       8.32200000
C        5.28700000       9.64700000       7.75500000
C        4.07500000       9.82200000       7.02600000
H        3.43500000      10.65000000       7.32000000
C        3.54700000       8.77600000       6.23800000
H        2.49300000       8.86100000       5.95000000
C        4.31600000       7.64000000       6.08100000
O        3.86500000       6.49500000       5.38300000
C        5.62800000       7.54300000       6.71200000
C        6.10500000       8.55100000       7.51700000
H        7.12000000       8.50500000       7.87000000
O        6.47000000       6.47000000       6.47000000
H        7.45700000       6.73600000       6.59200000
C        2.57400000       6.59800000       4.73900000
H        2.63000000       7.40300000       4.01700000
H        1.82100000       6.81500000       5.52900000
H        2.40200000       5.63800000       4.22800000
17
Lattice="12.8 0.0 0.0 0.0 12.8 0.0 0.0 0.0 12.8" Properties=species:S:1:pos:R:3 Time=0.0 energy=1.0 pbc="T T T"
H        5.32800000      10.56500000       8.20500000
C        5.02200000       9.68400000       7.68100000
C        3.80600000       9.62600000       6.99000000
H        3.09100000      10.48800000       7.12600000
C        3.53800000       8.45600000       6.29300000
H        2.53500000       8.30800000       5.93700000
C        4.46500000       7.47700000       6.12500000
O        4.19600000       6.34100000       5.37800000
C        5.65100000       7.51700000       6.82400000
C        5.97000000       8.64600000       7.58100000
H        7.01100000       8.79000000       7.91900000
O        6.47000000       6.47000000       6.47000000
H        7.42500000       6.60200000       6.73600000
C        2.94500000       6.36100000       4.64200000
H        2.67600000       7.32900000       4.16400000
H        2.16300000       6.03700000       5.31700000
H        3.05100000       5.62400000       3.84700000
17
Lattice="12.8 0.0 0.0 0.0 12.8 0.0 0.0 0.0 12.8" Properties=species:S:1:pos:R:3 Time=0.0 energy=1.0 pbc="T T T"
H        6.25400000      10.87400000       7.45500000
C        5.68300000      10.01400000       7.23300000
C        4.31100000      10.07400000       6.84900000
H        3.86300000      11.09000000       6.82100000
C        3.63500000       8.98800000       6.27300000
H        2.59500000       9.14600000       6.08800000
C        4.41600000       7.77200000       6.17200000
O        3.97100000       6.53400000       5.80000000
C        5.76400000       7.71100000       6.65200000
C        6.41900000       8.83600000       7.17600000
H        7.51900000       8.85600000       7.22900000
O        6.47000000       6.47000000       6.47000000
H        7.53700000       6.65900000       6.41900000
C        2.67000000       6.49600000       5.21000000
H        2.29600000       7.49500000       5.03500000
H        2.01800000       6.03500000       5.96500000
H        2.63200000       5.99400000       4.25800000
17
Lattice="12.8 0.0 0.0 0.0 12.8 0.0 0.0 0.0 12.8" Properties=species:S:1:pos:R:3 Time=0.0 energy=1.0 pbc="T T T"
H        5.36700000      10.60200000       8.15700000
C        5.02500000       9.78500000       7.51400000
C        3.79400000       9.78500000       6.86200000
H        3.07900000      10.62000000       6.92700000
C        3.45100000       8.61800000       6.15300000
H        2.46300000       8.58200000       5.60700000
C        4.26300000       7.47200000       6.17400000
O        3.98600000       6.30900000       5.45200000
C        5.60700000       7.51300000       6.71600000
C        5.88900000       8.65100000       7.46700000
H        6.94600000       8.66500000       7.86100000
O        6.47000000       6.47000000       6.47000000
H        7.45000000       6.54400000       6.74400000
C        2.65500000       6.10900000       5.03700000
H        2.07500000       7.00500000       4.84900000
H        2.20800000       5.50500000       5.88200000
H        2.68900000       5.58200000       4.08800000
17