14
Lattice="15.91 0.0 0.0 0.0 15.91 0.0 0.0 0.0 15.91" Properties=species:S:1:pos:R:3 Time=0.0 energy=1.0 pbc="T T T"
H       13.75700000       0.17300000      13.14800000
C       12.68000000       0.43600000      13.39100000
C       11.71500000      -0.44000000      13.84900000
O       12.00100000      -1.80400000      14.12000000
C       10.49300000       0.18900000      14.15700000
H        9.74700000      -0.43700000      14.62000000
C       10.28500000       1.53900000      14.10300000
H        9.37000000       2.03300000      14.36900000
C       11.32900000       2.39700000      13.70500000
C       12.53700000       1.79500000      13.28100000
H       13.32400000       2.33600000      12.81700000
O       11.06600000       3.76100000      13.66500000
H       11.89500000       4.24900000      13.27000000
H       11.05600000      -2.31500000      14.11300000
14
Lattice="15.91 0.0 0.0 0.0 15.91 0.0 0.0 0.0 15.91" Properties=species:S:1:pos:R:3 Time=0.0 energy=1.0 pbc="T T T"
H       13.97200000       0.33200000      13.33600000
C       12.94900000       0.50900000      13.57300000
C       12.01000000      -0.47500000      13.95300000
O       12.37600000      -1.81200000      13.93500000
C       10.74100000      -0.03700000      14.27600000
H        9.85800000      -0.69400000      14.40200000
C       10.41100000       1.34800000      14.25000000
H        9.41100000       1.73600000      14.56400000
C       11.35400000       2.33100000      13.90500000
C       12.60600000       1.88700000      13.54200000
H       13.35600000       2.69700000      13.33800000
O       10.93100000       3.61500000      13.83100000
H       11.71500000       4.19400000      13.69400000
H       11.52800000      -2.32900000      14.01500000
14
Lattice="15.91 0.0 0.0 0.0 15.91 0.0 0.0 0.0 15.91" Properties=species:S:1:pos:R:3 Time=0.0 energy=1.0 pbc="T T T"
H       13.96700000       0.27100000      13.34300000
C       12.97400000       0.49200000      13.57200000
C       12.00600000      -0.47200000      13.93700000
O       12.37200000      -1.79800000      13.93400000
C       10.73500000      -0.03600000      14.29000000
H        9.84600000      -0.69800000      14.40500000
C       10.41400000       1.35000000      14.24800000
H        9.41200000       1.70200000      14.57100000
C       11.36100000       2.32700000      13.91800000
C       12.63400000       1.89800000      13.54200000
H       13.37100000       2.70600000      13.31700000
O       10.93200000       3.59200000      13.83300000
H       11.71500000       4.21000000      13.71400000
H       11.54200000      -2.31500000      14.03200000
14
Lattice="15.91 0.0 0.0 0.0 15.91 0.0 0.0 0.0 15.91" Properties=species:S:1:pos:R:3 Time=0.0 energy=1.0 pbc="T T T"
H       14.01500000       0.16700000      13.33500000
C       12.99100000       0.48400000      13.57200000
C       12.00500000      -0.46500000      13.91700000
O       12.36600000      -1.78300000      13.93100000
C       10.71600000      -0.03000000      14.30400000
H        9.86200000      -0.70500000      14.42000000
C       10.41500000       1.34700000      14.24900000
H        9.42300000       1.64800000      14.56900000
C       11.36900000       2.30600000      13.93100000
C       12.67000000       1.90400000      13.54200000
H       13.37600000       2.68200000      13.29100000
O       10.93400000       3.57400000      13.83500000
H       11.70700000       4.21900000      13.73000000
H       11.53700000      -2.32500000      14.05000000
14
Lattice="15.91 0.0 0.0 0.0 15.91 0.0 0.0 0.0 15.91" Properties=species:S:1:pos:R:3 Time=0.0 energy=1.0 pbc="T T T"
H       13.94900000      -0.50700000      13.29800000
C       13.10600000       0.05200000      13.50700000
C       12.05400000      -0.74300000      14.00400000
O       12.16200000      -2.08100000      14.11600000
C       10.85000000      -0.11800000      14.44700000
H       10.03900000      -0.74800000      14.77900000
C       10.63100000       1.25300000      14.25400000
H        9.68300000       1.67700000      14.58400000
C       11.66100000       2.07200000      13.72600000
C       12.89800000       1.46700000      13.38000000
H       13.67300000       2.17800000      13.07600000
O       11.33300000       3.37000000      13.43900000
H       12.16100000       3.86100000      13.27800000
H       11.25900000      -2.49300000      14.04600000
14
Lattice="15.91 0.0 0.0 0.0 15.91 0.0 0.0 0.0 15.91" Properties=species:S:1:pos:R:3 Time=0.0 energy=1.0 pbc="T T T"
H       13.57500000      -0.20700000      14.37100000
C       12.64600000       0.36200000      14.11200000
C       11.48600000      -0.44200000      13.89800000
O       11.70900000      -1.83700000      14.02300000
C       10.27100000       0.05900000      13.45700000
H        9.30300000      -0.47800000      13.49100000
C       10.21200000       1.42800000      13.29500000
H        9.25300000       1.91000000      13.02600000
C       11.35500000       2.24600000      13.52200000
C       12.58800000       1.74400000      13.90600000
H       13.45200000       2.43100000      13.99200000
O       10.98100000       3.59800000      13.46800000
H       11.82800000       4.06000000      13.33600000
H       10.77300000      -2.32500000      14.06900000
14
Lattice="15.91 0.0 0.0 0.0 15.91 0.0 0.0 0.0 15.91" Properties=species:S:1:pos:R:3 Time=0.0 energy=1.0 pbc="T T T"
H       13.62000000       0.15100000      14.92500000
C       12.76400000       0.43500000      14.37500000
C       11.87300000      -0.58000000      13.86600000
O       12.05300000      -1.86600000      14.26200000
C       10.74800000      -0.09600000      13.13600000
H        9.97300000      -0.77800000      12.74800000
C       10.57100000       1.27800000      12.94500000
H        9.67700000       1.65200000      12.44100000
C       11.46500000       2.24400000      13.48500000
C       12.60100000       1.81600000      14.12100000
H       13.37600000       2.54500000      14.41500000
O       11.17900000       3.51600000      13.20700000
H       11.95300000       4.08500000      13.15700000
H       11.29100000      -2.39200000      13.91900000
14
Lattice="15.91 0.0 0.0 0.0 15.91 0.0 0.0 0.0 15.91" Properties=species:S:1:pos:R:3 Time=0.0 energy=1.0 pbc="T T T"
H       13.70400000       0.15800000      15.11400000
C       12.81800000       0.39500000      14.51400000
C       11.93900000      -0.61300000      14.03100000
O       12.16500000      -1.92300000      14.52000000
C       10.86700000      -0.17800000      13.25700000
H       10.18000000      -0.80200000      12.68500000
C       10.59400000       1.15800000      12.96000000
H        9.68500000       1.38400000      12.42300000
C       11.49700000       2.17400000      13.41200000
C       12.60600000       1.73600000      14.18400000
H       13.19900000       2.45800000      14.72200000
O       11.20200000       3.43100000      13.05900000
H       11.90000000       4.09500000      13.12100000
H       11.32200000      -2.46900000      14.35000000
14
Lattice="15.91 0.0 0.0 0.0 15.91 0.0 0.0 0.0 15.91" Properties=species:S:1:pos:R:3 Time=0.0 energy=1.0 pbc="T T T"
H       13.52800000       0.21300000      15.31000000
C       12.78500000       0.44400000      14.56000000
C       11.89800000      -0.62700000      14.13000000
O       12.14000000      -1.92000000      14.47100000
C       10.81000000      -0.28300000      13.31000000
H       10.15000000      -1.14200000      13.10200000
C       10.56200000       1.06900000      12.96900000
H        9.73600000       1.44700000      12.30000000
C       11.46100000       2.12200000      13.37000000
C       12.53800000       1.78300000      14.15500000
H       13.24200000       2.62700000      14.41400000
O       11.19600000       3.40100000      13.07500000
H       12.02900000       4.05100000      13.05900000
H       11.34600000      -2.47900000      14.15800000
14
Lattice="15.91 0.0 0.0 0.0 15.91 0.0 0.0 0.0 15.91" Properties=species:S:1:pos:R:3 Time=0.0 energy=1.0 pbc="T T T"
H       13.51300000       0.15000000      15.20800000
C       12.68400000       0.34700000      14.59000000
C       11.85800000      -0.67300000      14.13500000
O       12.11900000      -1.96300000      14.45500000
C       10.68700000      -0.34700000      13.42000000
H        9.90900000      -1.12600000      13.14300000
C       10.49900000       1.06800000      13.12700000
H        9.61400000       1.29200000      12.47600000
C       11.36200000       2.13300000      13.46900000
C       12.46000000       1.71400000      14.31700000
H       13.22400000       2.40300000      14.76200000
O       11.21600000       3.35900000      12.93400000
H       12.00100000       3.96100000      13.06200000
H       11.35200000      -2.49800000      14.08000000
14
Lattice="15.91 0.0 0.0 0.0 15.91 0.0 0.0 0.0 15.91" Properties=species:S:1:pos:R:3 Time=0.0 energy=1.0 pbc="T T T"
H       13.54300000       0.05500000      15.05600000
C       12.67000000       0.31100000      14.49600000
C       11.75100000      -0.72400000      14.07400000
O       12.08300000      -2.10100000      14.33800000
C       10.64100000      -0.30100000      13.35200000
H        9.87100000      -1.06400000      13.05900000
C       10.41600000       1.03400000      12.95900000
H        9.64900000       1.50500000      12.30300000
C       11.30900000       2.04000000      13.43400000
C       12.40200000       1.64000000      14.20600000
H       13.12200000       2.42700000      14.46300000
O       10.98900000       3.37700000      13.10300000
H       11.79000000       3.97800000      13.17800000
H       11.33100000      -2.66900000      14.15300000
14
Lattice="15.91 0.0 0.0 0.0 15.91 0.0 0.0 0.0 15.91" Properties=species:S:1:pos:R:3 Time=0.0 energy=1.0 pbc="T T T"
H       13.56700000       0.04400000      14.96900000
C       12.67600000       0.36100000      14.34400000
C       11.81500000      -0.66900000      13.84800000
O       12.05200000      -1.94400000      14.25500000
C       10.63800000      -0.37200000      13.10100000
H       10.03700000      -1.25100000      12.79700000
C       10.30700000       0.96800000      12.95100000
H        9.41500000       1.35500000      12.42800000
C       11.16000000       2.02500000      13.43300000
C       12.35600000       1.71100000      14.10600000
H       13.02100000       2.49000000      14.38700000
O       10.85500000       3.35300000      13.19600000
H       11.72600000       3.81400000      13.28700000
H       11.28000000      -2.58900000      14.03100000
14
Lattice="15.91 0.0 0.0 0.0 15.91 0.0 0.0 0.0 15.91" Properties=species:S:1:pos:R:3 Time=0.0 energy=1.0 pbc="T T T"
H       13.55400000       0.13900000      14.70900000
C       12.65400000       0.34900000      14.20700000
C       11.76500000      -0.68500000      13.77200000
O       12.14900000      -1.95800000      13.94700000
C       10.59200000      -0.35000000      13.05100000
H        9.90100000      -1.15500000      12.67000000
C       10.31100000       1.04100000      12.79300000
H        9.46200000       1.39000000      12.18500000
C       11.19100000       2.07600000      13.35900000
C       12.31800000       1.72700000      14.05000000
H       13.05200000       2.47400000      14.48300000
O       10.79600000       3.42900000      13.32100000
H       11.52400000       4.11600000      13.29700000
H       11.41800000      -2.53000000      13.60600000
14
Lattice="15.91 0.0 0.0 0.0 15.91 0.0 0.0 0.0 15.91" Properties=species:S:1:pos:R:3 Time=0.0 energy=1.0 pbc="T T T"
H       13.70400000      -0.07100000      14.61700000
C       12.79900000       0.25400000      14.15100000
C       11.84000000      -0.62500000      13.56000000
O       12.27100000      -1.91000000      13.42800000
C       10.62200000      -0.18500000      13.04600000
H        9.96200000      -0.98800000      12.61900000
C       10.33100000       1.24000000      12.97500000
H        9.42600000       1.58300000      12.45600000
C       11.30500000       2.13900000      13.48400000
C       12.44300000       1.63600000      14.14000000
H       13.17000000       2.29900000      14.70500000
O       10.92900000       3.51400000      13.41800000
H       11.81400000       4.00700000      13.43900000
H       11.45300000      -2.40900000      13.27900000
14
Lattice="15.91 0.0 0.0 0.0 15.91 0.0 0.0 0.0 15.91" Properties=species:S:1:pos:R:3 Time=0.0 energy=1.0 pbc="T T T"
H       13.30300000       0.11600000      15.07300000
C       12.48100000       0.36700000      14.37800000
C       11.43800000      -0.52200000      14.09400000
O       11.57700000      -1.85300000      14.46400000
C       10.25500000      -0.02900000      13.47800000
H        9.53100000      -0.74700000      13.18700000
C       10.06600000       1.38800000      13.27600000
H        9.20500000       1.85300000      12.75700000
C       11.16000000       2.28300000      13.54500000
C       12.30800000       1.71400000      14.06300000
H       13.11500000       2.37200000      14.36600000
O       10.94700000       3.63200000      13.39500000
H       11.84000000       4.10600000      13.42500000
H       10.81600000      -2.50100000      14.02400000
14
Lattice="15.91 0.0 0.0 0.0 15.91 0.0 0.0 0.0 15.91" Properties=species:S:1:pos:R:3 Time=0.0 energy=1.0 pbc="T T T"
H       13.73800000       0.32400000      14.35700000
C       12.76300000       0.67200000      14.25300000
C       11.73000000      -0.30300000      14.10800000
O       12.02000000      -1.61700000      14.33900000
C       10.46300000       0.16600000      13.86000000
H        9.59500000      -0.56000000      13.86300000
C       10.25900000       1.55000000      13.55900000
H        9.23800000       1.82800000      13.52900000
C       11.23400000       2.48200000      13.70900000
C       12.50900000       2.01700000      14.12200000
H       13.37400000       2.68700000      14.36600000
O       10.94500000       3.76200000      13.50100000
H       11.81500000       4.20000000      13.44300000
H       11.41100000      -2.29300000      13.83500000
14
Lattice="15.91 0.0 0.0 0.0 15.91 0.0 0.0 0.0 15.91" Properties=species:S:1:pos:R:3 Time=0.0 energy=1.0 pbc="T T T"
H       13.84000000       0.32300000      14.40200000
C       12.75200000       0.66500000      14.24200000
C       11.77300000      -0.25600000      14.11400000
O       12.06000000      -1.59500000      14.32100000
C       10.44500000       0.16600000      13.86100000
H        9.68900000      -0.58200000      13.90300000
C       10.19700000       1.52100000      13.60000000
H        9.16200000       1.96700000      13.52300000
C       11.27000000       2.42100000      13.69200000
C       12.54300000       2.01100000      14.09400000
H       13.32700000       2.64000000      14.40900000
O       10.98800000       3.79800000      13.54800000
H       11.87300000       4.32300000      13.44900000
H       11.56700000      -2.22800000      13.76200000
14
Lattice="15.91 0.0 0.0 0.0 15.91 0.0 0.0 0.0 15.91" Properties=species:S:1:pos:R:3 Time=0.0 energy=1.0 pbc="T T T"
H       13.96400000      -0.10500000      13.61600000
C       12.97500000       0.30000000      13.52400000
C       11.94500000      -0.69900000      13.62000000
O       12.26400000      -2.06000000      13.51000000
C       10.59700000      -0.30300000      13.77100000
H        9.79800000      -0.95500000      14.06000000
C       10.27100000       1.09200000      13.78100000
H        9.17600000       1.42300000      13.98500000
C       11.25100000       2.09100000      13.56400000
C       12.59800000       1.66800000      13.41800000
H       13.38500000       2.41300000      13.32500000
O       10.88400000       3.36600000      13.67200000
H       11.61300000       4.05100000      13.55300000
H       11.47400000      -2.64500000      13.79000000
14
Lattice="15.91 0.0 0.0 0.0 15.91 0.0 0.0 0.0 15.91" Properties=species:S:1:pos:R:3 Time=0.0 energy=1.0 pbc="T T T"
H       13.40100000       0.22100000      15.38300000
C       12.67400000       0.46100000      14.53100000
C       11.95300000      -0.60900000      13.95800000
O       12.23500000      -1.89100000      14.23100000
C       10.97700000      -0.24200000      12.96400000
H       10.39900000      -1.00700000      12.54400000
C       10.70700000       1.14000000      12.63300000
H        9.90400000       1.38300000      11.85000000
C       11.44700000       2.13200000      13.24700000
C       12.49200000       1.82600000      14.22600000
H       13.07800000       2.63700000      14.65900000
O       11.08900000       3.44900000      12.96900000
H       11.68900000       4.12700000      13.32900000
H       11.47700000      -2.58800000      13.89300000
14
Lattice="15.91 0.0 0.0 0.0 15.91 0.0 0.0 0.0 15.91" Properties=species:S:1:pos:R:3 Time=0.0 energy=1.0 pbc="T T T"
H       13.94300000       0.02400000      14.25200000
C       12.91900000       0.33100000      14.00400000
C       11.92100000      -0.68100000      13.80000000
O       12.29600000      -1.96900000      14.12100000
C       10.65300000      -0.31000000      13.47900000
H        9.93700000      -1.11500000      13.33100000
C       10.28200000       1.10700000      13.31300000
H        9.27400000       1.40300000      13.07200000
C       11.24800000       2.09300000      13.60600000
C       12.56600000       1.68100000      13.90900000
H       13.33200000       2.49200000      14.09500000
O       10.91500000       3.42100000      13.53300000
H       11.65100000       4.04700000      13.80000000
H       11.56600000      -2.67300000      13.85700000
14
Lattice="15.91 0.0 0.0 0.0 15.91 0.0 0.0 0.0 15.91" Properties=species:S:1:pos:R:3 Time=0.0 energy=1.0 pbc="T T T"
H       13.86500000       0.07300000      14.43500000
C       12.86500000       0.30700000      14.16000000
C       11.93400000      -0.70200000      13.85400000
O       12.31000000      -1.98100000      13.85800000
C       10.62700000      -0.26700000      13.43300000
H        9.99000000      -1.04200000      13.03300000
C       10.30400000       1.13000000      13.26900000
H        9.33000000       1.46200000      12.89300000
C       11.29900000       2.08900000      13.57900000
C       12.59100000       1.64500000      13.98100000
H       13.38400000       2.41800000      14.19700000
O       11.04900000       3.39500000      13.52200000
H       11.80300000       3.96200000      13.42400000
H       11.50800000      -2.65600000      13.78700000
14
Lattice="15.91 0.0 0.0 0.0 15.91 0.0 0.0 0.0 15.91" Properties=species:S:1:pos:R:3 Time=0.0 energy=1.0 pbc="T T T"
H       14.04900000       0.15700000      14.57600000
C       12.99100000       0.36000000      14.16600000
C       12.03800000      -0.55500000      13.72300000
O       12.29800000      -1.88400000      13.90200000
C       10.76400000      -0.06000000      13.26200000
H        9.93700000      -0.79300000      12.98000000
C       10.47100000       1.31100000      13.13900000
H        9.44800000       1.65700000      12.96100000
C       11.48500000       2.24800000      13.62600000
C       12.71600000       1.78400000      14.03600000
H       13.39800000       2.58100000      14.40500000
O       11.12000000       3.58800000      13.68000000
H       11.91300000       4.26500000      13.70200000
H       11.44900000      -2.46700000      14.00700000
14
Lattice="15.91 0.0 0.0 0.0 15.91 0.0 0.0 0.0 15.91" Properties=species:S:1:pos:R:3 Time=0.0 energy=1.0 pbc="T T T"
H       13.88400000       0.44900000      14.27200000
C       12.87900000       0.82600000      14.00800000
C       11.92500000      -0.21300000      13.79200000
O       12.25400000      -1.54400000      13.96900000
C       10.66500000       0.14500000      13.37000000
H       10.03200000      -0.68600000      13.01900000
C       10.30400000       1.51200000      13.12900000
H        9.30200000       1.62600000      12.81800000
C       11.23300000       2.53000000      13.47500000
C       12.52300000       2.15000000      13.80600000
H       13.16500000       2.99900000      14.05000000
O       10.89800000       3.87300000      13.41100000
H       11.67200000       4.48000000      13.58100000
H       11.39800000      -2.08800000      14.01100000
14
Lattice="15.91 0.0 0.0 0.0 15.91 0.0 0.0 0.0 15.91" Properties=species:S:1:pos:R:3 Time=0.0 energy=1.0 pbc="T T T"
H       13.72000000       0.35500000      14.24400000
C       12.83500000       0.83700000      13.94800000
C       11.84000000      -0.10000000      13.53400000
O       12.17200000      -1.47100000      13.73500000
C       10.57800000       0.31500000      13.10000000
H        9.82400000      -0.45100000      12.99600000
C       10.31400000       1.69500000      12.99500000
H        9.40300000       2.06000000      12.60900000
C       11.32100000       2.57100000      13.27000000
C       12.59000000       2.18200000      13.81300000
H       13.21100000       3.04100000      13.96300000
O       11.03100000       3.92300000      13.14300000
H       11.84800000       4.53400000      13.03700000
H       11.39800000      -2.07600000      13.51500000
14
Lattice="15.91 0.0 0.0 0.0 15.91 0.0 0.0 0.0 15.91" Properties=species:S:1:pos:R:3 Time=0.0 energy=1.0 pbc="T T T"
H       13.85700000       0.57400000      14.27700000
C       12.84700000       0.82500000      13.83300000
C       11.88600000      -0.15000000      13.61800000
O       12.16300000      -1.48100000      13.80200000
C       10.61300000       0.27900000      13.13600000
H        9.83200000      -0.41500000      12.77100000
C       10.34400000       1.65900000      12.99200000
H        9.32900000       1.98500000      12.64100000
C       11.28500000       2.63500000      13.33700000
C       12.55700000       2.13600000      13.74300000
H       13.38600000       2.75700000      14.13600000
O       11.07700000       3.98500000      13.09600000
H       11.93900000       4.48300000      13.02300000
H       11.30100000      -2.03300000      13.79700000
14
Lattice="15.91 0.0 0.0 0.0 15.91 0.0 0.0 0.0 15.91" Properties=species:S:1:pos:R:3 Time=0.0 energy=1.0 pbc="T T T"
H       14.13000000      -0.15900000      14.36400000
C       13.11100000       0.15900000      13.97100000
C       12.08000000      -0.71200000      13.52600000
O       12.42700000      -2.04000000      13.51900000
C       10.79200000      -0.22700000      13.28800000
H        9.93300000      -0.96300000      13.12400000
C       10.52600000       1.17700000      13.30200000
H        9.54400000       1.55800000      12.99700000
C       11.61100000       2.00500000      13.53700000
C       12.86300000       1.48900000      13.97100000
H       13.61900000       2.16100000      14.42200000
O       11.45700000       3.37600000      13.44100000
H       12.37500000       3.86300000      13.52400000
H       11.66100000      -2.64100000      13.26700000
14
Lattice="15.91 0.0 0.0 0.0 15.91 0.0 0.0 0.0 15.91" Properties=species:S:1:pos:R:3 Time=0.0 energy=1.0 pbc="T T T"
H       14.06100000       0.02500000      14.49500000
C       13.12500000       0.40200000      14.14100000
C       12.11800000      -0.53600000      13.82600000
O       12.36300000      -1.87600000      13.99400000
C       10.82600000      -0.06700000      13.46100000
H        9.93100000      -0.70300000      13.30400000
C       10.63900000       1.33300000      13.32200000
H        9.59800000       1.77800000      13.18100000
C       11.66100000       2.23400000      13.58400000
C       12.91200000       1.74200000      14.01200000
H       13.72900000       2.49100000      14.22100000
O       11.35000000       3.65000000      13.43400000
H       12.19500000       4.13900000      13.29900000
H       11.52400000      -2.45700000      13.66700000
14
Lattice="15.91 0.0 0.0 0.0 15.91 0.0 0.0 0.0 15.91" Properties=species:S:1:pos:R:3 Time=0.0 energy=1.0 pbc="T T T"
H       13.67400000       0.16100000      14.19100000
C       12.71300000       0.40400000      13.80300000
C       11.76100000      -0.55700000      13.49200000
O       12.17200000      -1.84800000      13.73900000
C       10.52800000      -0.19300000      12.99000000
H        9.87700000      -1.04500000      12.77600000
C       10.18300000       1.12900000      12.88900000
H        9.19600000       1.38800000      12.38300000
C       11.13200000       2.11100000      13.26600000
C       12.41400000       1.78300000      13.73000000
H       13.12600000       2.62000000      13.93300000
O       10.66400000       3.45000000      13.22700000
H       11.41600000       4.09700000      13.23200000
H       11.35300000      -2.44200000      13.67000000
14
Lattice="15.91 0.0 0.0 0.0 15.91 0.0 0.0 0.0 15.91" Properties=species:S:1:pos:R:3 Time=0.0 energy=1.0 pbc="T T T"
H       13.66600000       0.11800000      14.26700000
C       12.73400000       0.44800000      13.89400000
C       11.79100000      -0.55200000      13.57200000
O       12.13300000      -1.89500000      13.74100000
C       10.49900000      -0.23000000      13.03000000
H        9.76500000      -0.93900000      12.66900000
C       10.19300000       1.15500000      12.91000000
H        9.27000000       1.56300000      12.34500000
C       11.11700000       2.12100000      13.23500000
C       12.38900000       1.77700000      13.69600000
H       13.22600000       2.45200000      13.95200000
O       10.72300000       3.44900000      13.13400000
H       11.56000000       3.99100000      13.20300000
H       11.35800000      -2.57000000      13.87400000
14
Lattice="15.91 0.0 0.0 0.0 15.91 0.0 0.0 0.0 15.91" Properties=species:S:1:pos:R:3 Time=0.0 energy=1.0 pbc="T T T"
H       13.77300000       0.17000000      14.46600000
C       12.71200000       0.35400000      14.10600000
C       11.75800000      -0.60400000      13.77400000
O       12.07800000      -1.93400000      13.88200000
C       10.54400000      -0.20300000      13.16200000
H        9.82400000      -1.04300000      12.94500000
C       10.26500000       1.16100000      12.96900000
H        9.39700000       1.43700000      12.47200000
C       11.29000000       2.12500000      13.20200000
C       12.44600000       1.69900000      13.89700000
H       13.23100000       2.42600000      14.06200000
O       11.01200000       3.43300000      12.82100000
H       11.78400000       4.03700000      12.89700000
H       11.33800000      -2.49000000      13.49500000
14
Lattice="15.91 0.0 0.0 0.0 15.91 0.0 0.0 0.0 15.91" Properties=species:S:1:pos:R:3 Time=0.0 energy=1.0 pbc="T T T"
H       13.80800000      -0.00400000      14.53700000
C       12.87000000       0.32400000      14.10400000
C       11.85800000      -0.60200000      13.79700000
O       11.95600000      -1.95700000      14.19700000
C       10.64700000      -0.15300000      13.18000000
H        9.91600000      -0.83100000      12.87500000
C       10.49400000       1.22300000      12.89000000
H        9.46200000       1.51000000      12.43000000
C       11.45600000       2.13700000      13.30400000
C       12.68900000       1.70400000      13.84900000
H       13.47600000       2.40000000      14.18000000
O       11.14500000       3.42500000      12.99700000
H       11.93200000       3.95600000      13.21300000
H       11.19300000      -2.51100000      13.73000000
14
Lattice="15.91 0.0 0.0 0.0 15.91 0.0 0.0 0.0 15.91" Properties=species:S:1:pos:R:3 Time=0.0 energy=1.0 pbc="T T T"
H       13.75600000       0.27900000      14.65900000
C       12.84100000       0.55400000      14.19600000
C       11.83400000      -0.43300000      14.04400000
O       12.11700000      -1.80000000      14.43300000
C       10.61400000      -0.08100000      13.43400000
H        9.80900000      -0.86900000      13.46800000
C       10.34500000       1.20200000      12.97300000
H        9.31800000       1.32200000      12.62800000
C       11.41600000       2.13700000      13.05800000
C       12.58200000       1.83200000      13.73500000
H       13.34000000       2.59000000      13.94600000
O       11.16000000       3.46400000      12.69100000
H       11.89600000       4.14000000      12.96300000
H       11.33400000      -2.34200000      14.12000000
14
Lattice="15.91 0.0 0.0 0.0 15.91 0.0 0.0 0.0 15.91" Properties=species:S:1:pos:R:3 Time=0.0 energy=1.0 pbc="T T T"
H       13.53000000       0.24100000      14.76100000
C       12.58400000       0.57300000      14.28800000
C       11.67300000      -0.40800000      13.95600000
O       11.90800000      -1.66100000      14.44000000
C       10.50300000      -0.02600000      13.29200000
H        9.63900000      -0.74200000      12.99300000
C       10.34200000       1.30800000      12.83800000
H        9.53900000       1.63300000      12.23500000
C       11.24700000       2.29500000      13.15600000
C       12.43300000       1.88600000      13.81400000
H       13.14700000       2.64100000      14.08100000
O       11.02600000       3.64500000      12.82200000
H       11.86100000       4.14300000      13.10000000
H       11.47200000      -2.42000000      13.87700000
14
Lattice="15.91 0.0 0.0 0.0 15.91 0.0 0.0 0.0 15.91" Properties=species:S:1:pos:R:3 Time=0.0 energy=1.0 pbc="T T T"
H       13.42000000       0.12600000      15.16400000
C       12.56700000       0.53400000      14.56400000
C       11.72700000      -0.36600000      13.94000000
O       12.15900000      -1.74500000      13.92600000
C       10.52500000       0.04900000      13.28800000
H        9.80500000      -0.57800000      12.88600000
C       10.27700000       1.46700000      13.26700000
H        9.36800000       1.88300000      12.76000000
C       11.17300000       2.36200000      13.87200000
C       12.31000000       1.87100000      14.47800000
H       13.03300000       2.58200000      14.88100000
O       10.95400000       3.73800000      13.82500000
H       11.83200000       4.11500000      13.60700000
H       11.36100000      -2.34600000      13.58200000
14
Lattice="15.91 0.0 0.0 0.0 15.91 0.0 0.0 0.0 15.91" Properties=species:S:1:pos:R:3 Time=0.0 energy=1.0 pbc="T T T"
H       13.67100000       0.12300000      14.90800000
C       12.80900000       0.49500000      14.34000000
C       11.84100000      -0.44000000      13.86000000