20
Lattice="13.17 0.0 0.0 0.0 13.17 0.0 0.0 0.0 13.17" Properties=species:S:1:pos:R:3 Time=0.0 energy=1.0 pbc="T T T"
H        7.26500000       5.25800000       9.34100000
C        7.03500000       4.73600000       8.41500000
C        5.80800000       4.78500000       7.78600000
H        4.88700000       5.23900000       8.21400000
C        5.79600000       4.35500000       6.41700000
O        4.56200000       4.49900000       5.79600000
C        6.85400000       3.74200000       5.75400000
H        6.93500000       3.48200000       4.65800000
C        8.07700000       3.72700000       6.48300000
C        8.19100000       4.25700000       7.83800000
H        9.02500000       4.44600000       8.50100000
O        9.26200000       3.07200000       5.97500000
C        9.37200000       3.03800000       4.56200000
H        9.07300000       3.99100000       4.07600000
H       10.49200000       2.85200000       4.37900000
H        8.86600000       2.14600000       4.09600000
C        4.55200000       4.27600000       4.35000000
H        4.90100000       3.23500000       4.20700000
H        3.51600000       4.33700000       4.06600000
H        5.23900000       5.01100000       3.93400000
20
Lattice="13.17 0.0 0.0 0.0 13.17 0.0 0.0 0.0 13.17" Properties=species:S:1:pos:R:3 Time=0.0 energy=1.0 pbc="T T T"
H        7.25100000       5.25400000       9.35600000
C        7.03000000       4.73800000       8.41300000
C        5.80900000       4.77900000       7.78900000
H        4.89700000       5.21500000       8.20100000
C        5.78500000       4.34900000       6.41000000
O        4.55500000       4.50200000       5.80300000
C        6.85000000       3.73700000       5.75200000
H        6.94600000       3.48500000       4.63800000
C        8.06400000       3.72600000       6.48100000
C        8.19800000       4.25400000       7.83500000
H        9.02300000       4.45400000       8.51500000
O        9.26600000       3.07500000       5.97000000
C        9.37500000       3.03000000       4.56500000
H        9.09200000       4.03300000       4.05700000
H       10.47100000       2.88800000       4.35600000
H        8.86700000       2.13600000       4.10600000
C        4.56300000       4.26400000       4.34700000
H        4.87700000       3.21900000       4.22900000
H        3.52000000       4.35200000       4.04800000
H        5.22300000       4.99000000       3.89600000
20
Lattice="13.17 0.0 0.0 0.0 13.17 0.0 0.0 0.0 13.17" Properties=species:S:1:pos:R:3 Time=0.0 energy=1.0 pbc="T T T"
H        7.07600000       4.76900000       9.35000000
C        6.86100000       4.65300000       8.30200000
C        5.64400000       4.69800000       7.56600000
H        4.81500000       5.00600000       8.16300000
C        5.61700000       4.36400000       6.23400000
O        4.39200000       4.44900000       5.60300000
C        6.79000000       4.08000000       5.53600000
H        6.80900000       3.87700000       4.49500000
C        8.00700000       3.96600000       6.25900000
C        8.03800000       4.33500000       7.62200000
H        8.91900000       4.41100000       8.29700000
O        9.21200000       3.60700000       5.73400000
C        9.33500000       3.28300000       4.36600000
H        8.89900000       4.11100000       3.81200000
H       10.32400000       3.00600000       4.24300000
H        8.72200000       2.43900000       4.06400000
C        4.37500000       3.99500000       4.15700000
H        4.55800000       2.89300000       4.12100000
H        3.27400000       4.17100000       3.94500000
H        5.08500000       4.47200000       3.45600000
20
Lattice="13.17 0.0 0.0 0.0 13.17 0.0 0.0 0.0 13.17" Properties=species:S:1:pos:R:3 Time=0.0 energy=1.0 pbc="T T T"
H        6.89500000       4.13500000       9.33600000
C        6.79800000       4.10100000       8.21400000
C        5.57700000       3.99400000       7.63900000
H        4.65500000       3.73200000       8.23500000
C        5.42800000       4.13800000       6.27000000
O        4.14300000       4.40500000       5.78800000
C        6.56100000       4.17600000       5.43200000
H        6.44900000       4.19000000       4.35200000
C        7.83400000       4.24200000       6.06200000
C        7.98600000       4.23300000       7.45600000
H        8.94700000       4.34800000       8.01700000
O        9.04000000       4.37200000       5.32300000
C        8.84600000       4.60700000       3.93900000
H        8.18900000       5.49600000       3.86700000
H        9.80500000       4.53000000       3.42600000
H        8.33600000       3.78500000       3.61300000
C        3.96400000       4.90100000       4.41100000
H        3.90600000       4.15200000       3.61800000
H        2.95400000       5.39300000       4.46900000
H        4.68100000       5.69700000       4.16600000
20
Lattice="13.17 0.0 0.0 0.0 13.17 0.0 0.0 0.0 13.17" Properties=species:S:1:pos:R:3 Time=0.0 energy=1.0 pbc="T T T"
H        7.69100000       3.98400000       9.15000000
C        7.46100000       4.20600000       8.08800000
C        6.11900000       4.52100000       7.72900000
H        5.31300000       4.49300000       8.48600000
C        5.86200000       4.85200000       6.35600000
O        4.62400000       5.07300000       5.94700000
C        6.91300000       4.62200000       5.40800000
H        6.68300000       4.69400000       4.33000000
C        8.22000000       4.28500000       5.85600000
C        8.55900000       4.18900000       7.21800000
H        9.52400000       3.87000000       7.51200000
O        9.33000000       4.04500000       5.01300000
C        9.29500000       4.49000000       3.59600000
H        8.77400000       5.39000000       3.33400000
H       10.41200000       4.73800000       3.40400000
H        8.87400000       3.66800000       2.88300000
C        4.18800000       5.30500000       4.60100000
H        4.50100000       4.44100000       3.98300000
H        3.12300000       5.36700000       4.76800000
H        4.60600000       6.29000000       4.26900000
20
Lattice="13.17 0.0 0.0 0.0 13.17 0.0 0.0 0.0 13.17" Properties=species:S:1:pos:R:3 Time=0.0 energy=1.0 pbc="T T T"
H        7.62900000       4.12600000       9.20400000
C        7.49600000       4.28800000       8.13300000
C        6.20500000       4.60600000       7.69900000
H        5.45500000       4.64200000       8.47100000
C        5.92700000       4.72100000       6.30800000
O        4.61200000       5.10400000       6.10500000
C        6.94100000       4.69100000       5.33600000
H        6.76100000       4.86300000       4.28300000
C        8.27000000       4.34400000       5.80100000
C        8.49500000       4.08100000       7.19200000
H        9.50800000       3.98300000       7.44700000
O        9.30600000       3.92200000       4.98100000
C        9.28900000       4.47100000       3.59800000
H        8.50100000       5.08200000       3.28000000
H       10.30000000       4.95900000       3.48500000
H        9.34300000       3.57900000       2.91500000
C        4.32000000       5.33300000       4.68800000
H        4.57500000       4.40400000       4.15100000
H        3.29700000       5.63700000       4.63200000
H        4.97900000       6.18900000       4.39200000
20
Lattice="13.17 0.0 0.0 0.0 13.17 0.0 0.0 0.0 13.17" Properties=species:S:1:pos:R:3 Time=0.0 energy=1.0 pbc="T T T"
H        7.71000000       3.16500000       9.46700000
C        7.54000000       3.52000000       8.47000000
C        6.31300000       4.12600000       8.13500000
H        5.37800000       4.20200000       8.76000000
C        6.11700000       4.37700000       6.80000000
O        4.85900000       4.88800000       6.47700000
C        7.09200000       4.27600000       5.81500000
H        6.75300000       4.43900000       4.81600000
C        8.34800000       3.80200000       6.20900000
C        8.56500000       3.30300000       7.49000000
H        9.52200000       2.99000000       7.78700000
O        9.40200000       3.79100000       5.31600000
C        9.28300000       4.15900000       3.94300000
H        8.82200000       3.40100000       3.16300000
H        8.80600000       5.15500000       3.88500000
H       10.28600000       4.34600000       3.67200000
C        4.41100000       4.85500000       5.12400000
H        4.68600000       3.90000000       4.60600000
H        3.29600000       4.96300000       5.05800000
H        4.82900000       5.68800000       4.53000000
20
Lattice="13.17 0.0 0.0 0.0 13.17 0.0 0.0 0.0 13.17" Properties=species:S:1:pos:R:3 Time=0.0 energy=1.0 pbc="T T T"
H        8.28000000       4.12500000       9.80800000
C        7.87100000       4.21900000       8.79500000
C        6.47800000       4.39000000       8.51900000
H        5.74100000       4.43100000       9.29100000
C        6.02700000       4.33200000       7.19000000
O        4.70000000       4.49300000       6.90100000
C        6.95100000       4.22700000       6.10600000
H        6.65300000       4.31600000       5.02700000
C        8.34000000       4.21400000       6.49000000
C        8.84400000       4.12000000       7.80100000
H        9.91800000       4.04000000       8.07900000
O        9.29600000       4.31800000       5.51600000
C        8.89900000       4.00300000       4.15900000
H        8.08500000       3.17100000       4.09500000
H        8.40500000       4.85200000       3.63000000
H        9.75800000       3.60200000       3.64000000
C        4.30600000       4.47000000       5.58600000
H        4.76700000       3.59700000       5.05900000
H        3.22300000       4.39900000       5.61300000
H        4.56300000       5.42100000       5.03000000
20
Lattice="13.17 0.0 0.0 0.0 13.17 0.0 0.0 0.0 13.17" Properties=species:S:1:pos:R:3 Time=0.0 energy=1.0 pbc="T T T"
H        8.03700000       2.85500000       9.36600000
C        7.71800000       3.37400000       8.47800000
C        6.42800000       3.79100000       8.38300000
H        5.78000000       3.63200000       9.20500000
C        5.92900000       4.27200000       7.19200000
O        4.56400000       4.49000000       7.27800000
C        6.77600000       4.43200000       6.11600000
H        6.42200000       4.87900000       5.16600000
C        8.15800000       4.21000000       6.19000000
C        8.59200000       3.50200000       7.41300000
H        9.58800000       3.19600000       7.50100000
O        9.06200000       4.57600000       5.21100000
C        8.63600000       5.09900000       3.97100000
H        7.79700000       4.48200000       3.62800000
H        8.27200000       6.19500000       3.98800000
H        9.48000000       5.00900000       3.34800000
C        3.89300000       4.92400000       5.97400000
H        4.24200000       4.31400000       5.13200000
H        2.79700000       4.66600000       5.95600000
H        4.06800000       6.00100000       5.77200000
20
Lattice="13.17 0.0 0.0 0.0 13.17 0.0 0.0 0.0 13.17" Properties=species:S:1:pos:R:3 Time=0.0 energy=1.0 pbc="T T T"
H        7.99700000       2.88900000       9.38700000
C        7.74100000       3.36100000       8.43900000
C        6.42000000       3.74300000       8.39300000
H        5.72100000       3.65900000       9.24500000
C        5.88000000       4.24700000       7.21000000
O        4.56300000       4.48300000       7.25200000
C        6.77100000       4.45000000       6.09500000
H        6.41300000       4.88700000       5.14700000
C        8.16300000       4.14800000       6.20200000
C        8.59100000       3.52400000       7.40500000
H        9.68200000       3.18100000       7.59200000
O        9.06600000       4.60200000       5.22100000
C        8.67100000       5.11800000       3.93300000
H        7.83600000       4.55000000       3.50900000
H        8.34900000       6.10200000       4.09700000
H        9.61000000       4.85100000       3.34800000
C        3.88400000       4.92200000       5.99700000
H        4.30300000       4.31100000       5.15100000
H        2.82500000       4.69700000       6.06900000
H        4.03900000       6.01600000       5.86700000
20
Lattice="13.17 0.0 0.0 0.0 13.17 0.0 0.0 0.0 13.17" Properties=species:S:1:pos:R:3 Time=0.0 energy=1.0 pbc="T T T"
H        8.18400000       3.09000000       9.53500000
C        7.83800000       3.50800000       8.65800000
C        6.51500000       3.97300000       8.50600000
H        5.80500000       3.91700000       9.33300000
C        6.07100000       4.47900000       7.27200000
O        4.78600000       4.89000000       7.13800000
C        6.98700000       4.68200000       6.22500000
H        6.69200000       5.06400000       5.19600000
C        8.29500000       4.31200000       6.44400000
C        8.73900000       3.63100000       7.62000000
H        9.80600000       3.37400000       7.60900000
O        9.19600000       4.59800000       5.44000000
C        8.79300000       5.03600000       4.10800000
H        8.30000000       4.26100000       3.45500000
H        8.19500000       5.92300000       4.02300000
H        9.79300000       5.07400000       3.65800000
C        4.12000000       4.93300000       5.83200000
H        4.35200000       3.94900000       5.30400000
H        3.01000000       4.98800000       6.06000000
H        4.48400000       5.79800000       5.21500000
20
Lattice="13.17 0.0 0.0 0.0 13.17 0.0 0.0 0.0 13.17" Properties=species:S:1:pos:R:3 Time=0.0 energy=1.0 pbc="T T T"
H        8.54100000       3.68700000       8.87300000
C        8.16900000       3.84600000       7.79000000
C        6.80800000       3.86100000       7.57100000
H        6.08000000       3.83600000       8.39200000
C        6.36400000       4.13800000       6.25900000
O        5.01700000       4.20500000       6.04800000
C        7.24100000       4.48100000       5.23100000
H        6.74200000       4.84800000       4.32300000
C        8.64300000       4.37700000       5.51400000
C        9.15700000       4.01100000       6.75000000
H       10.22200000       3.84300000       6.90700000
O        9.65200000       4.57500000       4.51600000
C        9.23100000       4.96100000       3.16400000
H        8.77100000       4.11400000       2.47000000
H        8.39100000       5.75300000       3.19200000
H        9.96400000       5.57100000       2.67800000
C        4.52700000       4.44700000       4.71400000
H        5.01200000       3.83800000       3.91400000
H        3.47100000       4.23200000       4.84500000
H        4.59600000       5.52000000       4.40000000
20
Lattice="13.17 0.0 0.0 0.0 13.17 0.0 0.0 0.0 13.17" Properties=species:S:1:pos:R:3 Time=0.0 energy=1.0 pbc="T T T"
H        8.44800000       3.74100000       8.78300000
C        8.20200000       3.86000000       7.77600000
C        6.80900000       3.91600000       7.55300000
H        6.13400000       3.72500000       8.38400000
C        6.39400000       4.15400000       6.26000000
O        5.04300000       4.22800000       6.00700000
C        7.20500000       4.46900000       5.20400000
H        6.78100000       4.83000000       4.25500000
C        8.63000000       4.37800000       5.45300000
C        9.14600000       3.95500000       6.77800000
H       10.25300000       4.00700000       6.85300000
O        9.67000000       4.58000000       4.54600000
C        9.20800000       4.91700000       3.19300000
H        8.75400000       4.19900000       2.59300000
H        8.46900000       5.68200000       3.16000000
H       10.16600000       5.36500000       2.75000000
C        4.51100000       4.42700000       4.72100000
H        5.07900000       3.82900000       3.99700000
H        3.42600000       4.19600000       4.73400000
H        4.68600000       5.48700000       4.46600000
20
Lattice="13.17 0.0 0.0 0.0 13.17 0.0 0.0 0.0 13.17" Properties=species:S:1:pos:R:3 Time=0.0 energy=1.0 pbc="T T T"
H        7.76400000       4.17700000       8.97000000
C        7.78900000       4.18100000       7.85400000
C        6.46400000       4.13800000       7.44900000
H        5.66600000       4.37600000       8.16300000
C        6.15200000       4.22300000       6.08300000
O        4.83200000       4.38200000       5.70000000
C        7.18100000       4.23300000       5.14600000
H        6.98100000       4.33600000       4.07100000
C        8.52900000       4.19000000       5.58500000
C        8.87900000       4.22400000       6.90100000
H        9.87700000       4.05400000       7.29000000
O        9.57100000       4.34100000       4.71600000
C        9.34000000       4.02900000       3.32100000
H        9.15100000       2.88700000       3.28000000
H        8.35000000       4.50200000       2.84900000
H       10.26100000       4.29000000       2.84300000
C        4.59100000       4.86000000       4.26800000
H        5.12900000       4.23000000       3.51900000
H        3.52100000       4.68600000       4.15900000
H        4.85800000       5.90000000       4.15000000
20
Lattice="13.17 0.0 0.0 0.0 13.17 0.0 0.0 0.0 13.17" Properties=species:S:1:pos:R:3 Time=0.0 energy=1.0 pbc="T T T"
H        7.54800000       3.99600000       9.01800000
C        7.35800000       4.05500000       7.92900000
C        6.06900000       4.09000000       7.41000000
H        5.26800000       3.83300000       8.10300000
C        5.93400000       4.33800000       6.02000000
O        4.62800000       4.44700000       5.56400000
C        7.04000000       4.49200000       5.17100000
H        6.80300000       4.60400000       4.03300000
C        8.35700000       4.25400000       5.71400000
C        8.53700000       4.07500000       7.10200000
H        9.59600000       4.07000000       7.44000000
O        9.55800000       4.23700000       5.01400000
C        9.42900000       3.91800000       3.63300000
H        8.88000000       2.94900000       3.51800000
H        9.15600000       4.74600000       2.92700000
H       10.52600000       3.65300000       3.21100000
C        4.36800000       5.05300000       4.29300000
H        4.49500000       4.33600000       3.48300000
H        3.31300000       5.35200000       4.34500000
H        4.96600000       5.99800000       4.07200000
20
Lattice="13.17 0.0 0.0 0.0 13.17 0.0 0.0 0.0 13.17" Properties=species:S:1:pos:R:3 Time=0.0 energy=1.0 pbc="T T T"
H        6.94700000       4.77100000       9.35100000
C        7.04200000       4.57000000       8.23600000
C        5.84200000       4.57700000       7.52400000
H        4.88700000       4.67700000       7.98000000
C        5.92900000       4.49900000       6.09300000
O        4.64000000       4.50800000       5.52600000
C        7.11600000       4.29000000       5.42100000
H        7.02500000       4.21100000       4.33700000
C        8.32000000       4.28700000       6.14100000
C        8.35100000       4.39200000       7.61500000
H        9.35200000       4.44700000       8.09300000
O        9.57800000       4.44900000       5.56100000
C        9.71000000       4.14600000       4.11800000
H        9.79800000       3.01800000       4.00300000
H        9.05800000       4.71900000       3.50700000
H       10.73900000       4.65200000       3.80800000
C        4.44200000       4.50000000       4.11000000
H        4.76000000       3.53000000       3.66300000
H        3.39900000       4.76500000       3.87000000
H        5.04700000       5.21500000       3.54500000
20
Lattice="13.17 0.0 0.0 0.0 13.17 0.0 0.0 0.0 13.17" Properties=species:S:1:pos:R:3 Time=0.0 energy=1.0 pbc="T T T"
H        8.67300000       3.19500000       9.21100000
C        8.20800000       3.54600000       8.26900000
C        6.86200000       3.82100000       8.13800000
H        6.11900000       3.91200000       8.98600000
C        6.30300000       4.26800000       6.89000000
O        4.99800000       4.60400000       7.01900000
C        7.19800000       4.35600000       5.74900000
H        6.83000000       4.75500000       4.81000000
C        8.52600000       4.06600000       5.96600000
C        9.06800000       3.68300000       7.16000000
H       10.10200000       3.42100000       7.24900000
O        9.52300000       4.38500000       4.97100000
C        8.96700000       4.47800000       3.56200000
H        8.32500000       3.69700000       3.27200000
H        8.51600000       5.51900000       3.38600000
H        9.87000000       4.35600000       2.89600000
C        4.39900000       5.04200000       5.70300000
H        4.33000000       4.20500000       5.02400000
H        3.43200000       5.41800000       6.07300000
H        4.96100000       5.89600000       5.18700000
20
Lattice="13.17 0.0 0.0 0.0 13.17 0.0 0.0 0.0 13.17" Properties=species:S:1:pos:R:3 Time=0.0 energy=1.0 pbc="T T T"
H        8.24200000       3.56900000       9.87900000
C        7.94000000       3.79900000       8.84100000
C        6.54700000       4.03800000       8.44000000
H        5.71900000       4.11100000       9.08800000
C        6.28700000       4.30600000       7.06200000
O        4.98200000       4.47100000       6.76200000
C        7.27700000       4.04500000       6.09300000
H        7.07100000       4.13500000       4.97300000
C        8.60600000       3.84900000       6.51900000
C        8.93500000       3.79600000       7.88900000
H        9.99000000       3.65900000       8.13900000
O        9.66500000       3.87700000       5.55500000
C        9.44700000       4.24000000       4.22200000
H        8.97000000       3.49300000       3.58300000
H        9.07400000       5.28900000       4.15500000
H       10.53900000       4.29000000       3.87800000
C        4.66700000       5.29000000       5.64400000
H        4.62100000       4.81100000       4.64500000
H        3.65400000       5.63800000       5.92300000
H        5.35600000       6.15500000       5.55000000
20
Lattice="13.17 0.0 0.0 0.0 13.17 0.0 0.0 0.0 13.17" Properties=species:S:1:pos:R:3 Time=0.0 energy=1.0 pbc="T T T"
H        7.98000000       3.48300000      10.01400000
C        7.72800000       3.71200000       8.94200000
C        6.50400000       4.08700000       8.50400000
H        5.71200000       3.99100000       9.17300000
C        6.35100000       4.39900000       7.12700000
O        5.07200000       4.65900000       6.79700000
C        7.32900000       4.37600000       6.20600000
H        7.19200000       4.65500000       5.11500000
C        8.63200000       3.94600000       6.66300000
C        8.80200000       3.58600000       8.02400000
H        9.84800000       3.41000000       8.36000000
O        9.73300000       3.85800000       5.87300000
C        9.51700000       4.09200000       4.38100000
H        8.93700000       3.30600000       3.92000000
H        9.07000000       5.05800000       4.11100000
H       10.46600000       3.85100000       3.91600000
C        4.85000000       5.35300000       5.50800000
H        5.39800000       4.82500000       4.69700000
H        3.80000000       5.58800000       5.27400000
H        5.28400000       6.38800000       5.46900000
20
Lattice="13.17 0.0 0.0 0.0 13.17 0.0 0.0 0.0 13.17" Properties=species:S:1:pos:R:3 Time=0.0 energy=1.0 pbc="T T T"
H        7.70800000       3.90100000       9.61900000
C        7.50000000       3.99600000       8.58700000
C        6.16200000       4.29400000       8.21800000
H        5.38200000       4.58700000       9.00700000
C        5.91500000       4.44000000       6.82100000
O        4.60000000       4.79900000       6.47700000
C        6.89700000       4.20900000       5.84200000
H        6.59900000       4.48800000       4.79800000
C        8.16300000       3.77900000       6.28300000
C        8.45600000       3.75600000       7.60000000
H        9.41100000       3.37400000       7.98100000
O        9.23400000       3.54700000       5.37000000
C        9.04300000       3.78000000       3.96200000
H        8.16900000       3.26600000       3.65800000
H        8.87300000       4.79900000       3.74900000
H        9.98700000       3.50600000       3.41700000
C        4.15400000       4.84100000       5.15900000
H        4.19400000       3.80600000       4.67700000
H        3.08100000       4.99000000       5.08100000
H        4.70700000       5.59300000       4.59600000
20
Lattice="13.17 0.0 0.0 0.0 13.17 0.0 0.0 0.0 13.17" Properties=species:S:1:pos:R:3 Time=0.0 energy=1.0 pbc="T T T"
H        7.86200000       4.55500000       9.41100000
C        7.54300000       4.28900000       8.41600000
C        6.26500000       4.53900000       7.98600000
H        5.64300000       5.06200000       8.74000000
C        5.91800000       4.50800000       6.67500000
O        4.60600000       4.68400000       6.29700000
C        6.91400000       4.22700000       5.74200000
H        6.72700000       4.37100000       4.61000000
C        8.22300000       3.95900000       6.17200000
C        8.60700000       3.97600000       7.54900000
H        9.60700000       3.87400000       7.85500000
O        9.18600000       3.59700000       5.22200000
C        9.05100000       4.00600000       3.85200000
H        8.15100000       3.57900000       3.33700000
H        9.02000000       5.08300000       3.66800000
H        9.83800000       3.49200000       3.47800000
C        4.26700000       4.35500000       4.88800000
H        4.72100000       3.44100000       4.56500000
H        3.20900000       4.46000000       4.75000000
H        4.76600000       5.12600000       4.29200000
20
Lattice="13.17 0.0 0.0 0.0 13.17 0.0 0.0 0.0 13.17" Properties=species:S:1:pos:R:3 Time=0.0 energy=1.0 pbc="T T T"
H        7.93600000       4.57300000       9.35300000
C        7.57500000       4.53800000       8.24800000
C        6.18000000       4.51200000       7.87100000
H        5.44100000       4.72500000       8.59300000
C        5.96200000       4.56000000       6.43500000
O        4.70000000       4.62500000       5.94800000
C        6.97200000       4.27600000       5.56800000
H        6.80900000       4.14900000       4.51300000
C        8.34400000       4.24200000       6.02000000
C        8.64100000       4.37700000       7.37400000
H        9.69200000       4.24300000       7.73800000
O        9.49900000       4.08700000       5.32900000
C        9.49400000       4.34500000       3.92400000
H        9.01500000       3.60800000       3.32600000
H        8.92800000       5.28000000       3.81800000
H       10.58000000       4.39700000       3.50200000
C        4.26600000       4.71200000       4.60800000
H        4.41600000       3.72600000       4.17300000
H        3.23100000       5.08100000       4.64400000
H        4.83900000       5.36400000       3.97800000
20
Lattice="13.17 0.0 0.0 0.0 13.17 0.0 0.0 0.0 13.17" Properties=species:S:1:pos:R:3 Time=0.0 energy=1.0 pbc="T T T"
H        7.49400000       4.48200000       9.43300000
C        7.41800000       4.41600000       8.32700000
C        6.18200000       4.59100000       7.73300000
H        5.24800000       4.69100000       8.31700000
C        5.98100000       4.49200000       6.31400000
O        4.64900000       4.64900000       6.03000000
C        7.07400000       4.48900000       5.43300000
H        7.04400000       4.46900000       4.39700000
C        8.39300000       4.43200000       6.01100000
C        8.57000000       4.46400000       7.47400000
H        9.57600000       4.70800000       7.97000000
O        9.54300000       4.26700000       5.25800000
C        9.48700000       4.36600000       3.86100000
H        9.13200000       3.41200000       3.44300000
H        9.04300000       5.21900000       3.48700000
H       10.57600000       4.52200000       3.58800000
C        4.41900000       4.79400000       4.54200000
H        4.44900000       3.84100000       3.92400000
H        3.46400000       5.30800000       4.51200000
H        5.13200000       5.50000000       4.18600000
20
Lattice="13.17 0.0 0.0 0.0 13.17 0.0 0.0 0.0 13.17" Properties=species:S:1:pos:R:3 Time=0.0 energy=1.0 pbc="T T T"
H        7.51000000       4.61800000       9.34300000
C        7.44600000       4.54900000       8.29700000
C        6.09700000       4.58200000       7.78700000
H        5.16700000       4.58800000       8.45200000
C        5.99400000       4.59500000       6.35700000
O        4.70900000       4.66300000       5.72300000
C        7.10500000       4.69800000       5.50200000
H        6.92300000       4.56300000       4.39000000
C        8.39900000       4.58200000       6.04800000
C        8.53400000       4.50900000       7.45200000
H        9.49500000       4.42100000       7.91200000
O        9.57600000       4.59800000       5.29600000
C        9.41200000       4.40500000       3.94300000
H        8.85700000       3.44200000       3.74800000
H        8.81700000       5.29200000       3.41600000
H       10.34800000       4.29500000       3.51500000
C        4.56300000       5.00400000       4.35700000
H        4.81600000       4.30900000       3.57700000
H        3.53900000       5.39500000       4.34000000
H        5.22600000       5.89900000       4.06100000
20
Lattice="13.17 0.0 0.0 0.0 13.17 0.0 0.0 0.0 13.17" Properties=species:S:1:pos:R:3 Time=0.0 energy=1.0 pbc="T T T"
H        7.23800000       4.73200000       9.47500000
C        7.24900000       4.64300000       8.30000000
C        5.92400000       4.68500000       7.73800000
H        5.02800000       4.82200000       8.27100000
C        5.86100000       4.84300000       6.32700000
O        4.62100000       5.08900000       5.78400000
C        7.04900000       4.74200000       5.46900000
H        6.93200000       4.89700000       4.35500000
C        8.36900000       4.62500000       5.97700000
C        8.34800000       4.54100000       7.42600000
H        9.32000000       4.57500000       7.85300000
O        9.48800000       4.45700000       5.23600000
C        9.31300000       4.51400000       3.83600000
H        8.59000000       3.73600000       3.47600000
H        9.04400000       5.47300000       3.39100000
H       10.39500000       4.12300000       3.40600000
C        4.56400000       5.17100000       4.32900000
H        5.24700000       4.45300000       3.76800000
H        3.47700000       5.04500000       4.12400000
H        4.86000000       6.10500000       3.85700000
20