20
Lattice="12.959 0.0 0.0 0.0 12.959 0.0 0.0 0.0 12.959" Properties=species:S:1:pos:R:3 Time=0.0 energy=1.0 pbc="T T T"
H        7.61000000       8.54900000       6.56100000
C        6.66200000       8.31400000       7.00500000
C        6.43400000       7.78500000       8.24500000
H        7.24300000       7.47600000       8.87500000
C        5.08800000       7.35300000       8.64400000
H        4.87900000       6.81700000       9.64300000
C        3.99000000       7.63900000       7.83700000
O        2.61400000       7.41700000       8.09500000
C        4.27200000       8.33600000       6.62500000
C        5.55300000       8.64400000       6.19800000
H        5.75400000       9.02900000       5.20300000
O        3.14900000       8.68000000       5.94900000
C        2.24600000       6.94700000       9.37600000
H        2.75300000       7.58400000      10.09600000
H        1.13700000       7.02400000       9.54700000
H        2.55600000       5.85400000       9.52400000
C        3.28100000       9.34900000       4.71400000
H        2.25000000       9.76000000       4.47000000
H        3.95600000      10.22800000       4.69600000
H        3.51000000       8.62100000       3.91500000
20
Lattice="12.959 0.0 0.0 0.0 12.959 0.0 0.0 0.0 12.959" Properties=species:S:1:pos:R:3 Time=0.0 energy=1.0 pbc="T T T"
H        7.44600000       8.85300000       7.24200000
C        6.45700000       8.47400000       7.48100000
C        6.26300000       7.53400000       8.51400000
H        7.14700000       7.10300000       8.94000000
C        5.03300000       6.93100000       8.77000000
H        4.94700000       6.20100000       9.49900000
C        3.94300000       7.49200000       8.02300000
O        2.64200000       7.01900000       8.24100000
C        4.07200000       8.41000000       6.96600000
C        5.37300000       8.79500000       6.68400000
H        5.52500000       9.50500000       5.84800000
O        2.87500000       8.73300000       6.29200000
C        2.45500000       6.55100000       9.59900000
H        2.68800000       7.36100000      10.23600000
H        1.37200000       6.29900000       9.56400000
H        3.05100000       5.69200000       9.88500000
C        2.88900000       9.75600000       5.21000000
H        1.87400000       9.58800000       4.79500000
H        2.87200000      10.77700000       5.65800000
H        3.66600000       9.57400000       4.50800000
20
Lattice="12.959 0.0 0.0 0.0 12.959 0.0 0.0 0.0 12.959" Properties=species:S:1:pos:R:3 Time=0.0 energy=1.0 pbc="T T T"
H        7.38300000       8.53300000       6.78700000
C        6.41100000       8.31400000       7.21700000
C        6.27900000       7.44400000       8.26900000
H        7.16400000       7.11000000       8.90100000
C        4.95200000       7.16000000       8.77900000
H        4.81700000       6.46900000       9.56600000
C        3.90200000       7.63900000       8.01300000
O        2.57900000       7.47400000       8.32100000
C        4.02500000       8.63100000       6.99300000
C        5.31500000       8.97800000       6.59200000
H        5.44600000       9.61500000       5.71700000
O        2.84600000       8.99700000       6.43900000
C        2.14800000       6.32700000       9.17300000
H        2.71300000       6.16100000      10.07700000
H        1.05000000       6.55800000       9.40100000
H        2.15900000       5.43500000       8.50300000
C        2.87800000      10.20500000       5.66600000
H        1.80800000      10.54700000       5.54800000
H        3.37300000      11.04200000       6.23700000
H        3.32400000      10.08200000       4.66700000
20
Lattice="12.959 0.0 0.0 0.0 12.959 0.0 0.0 0.0 12.959" Properties=species:S:1:pos:R:3 Time=0.0 energy=1.0 pbc="T T T"
H        7.13600000       8.51900000       7.44700000
C        6.08500000       8.30200000       7.69700000
C        5.83000000       7.33700000       8.62100000
H        6.57400000       6.95500000       9.28900000
C        4.48900000       6.92900000       8.83300000
H        4.40500000       6.04000000       9.52000000
C        3.41900000       7.55000000       8.22100000
O        2.12700000       7.18600000       8.44600000
C        3.75800000       8.56800000       7.23000000
C        5.09600000       8.88800000       6.89600000
H        5.35300000       9.62200000       6.14700000
O        2.70000000       9.11400000       6.54900000
C        1.82600000       6.39900000       9.58600000
H        1.57300000       7.16400000      10.39100000
H        0.88800000       5.84400000       9.29900000
H        2.63700000       5.73300000       9.92900000
C        2.93400000       9.99600000       5.49000000
H        1.97500000      10.54100000       5.26900000
H        3.58700000      10.82300000       5.86400000
H        3.37600000       9.49900000       4.62300000
20
Lattice="12.959 0.0 0.0 0.0 12.959 0.0 0.0 0.0 12.959" Properties=species:S:1:pos:R:3 Time=0.0 energy=1.0 pbc="T T T"
H        7.36000000       8.78800000       7.20700000
C        6.33300000       8.46800000       7.39300000
C        6.08900000       7.59300000       8.44100000
H        6.86400000       7.20400000       9.12500000
C        4.78600000       7.13800000       8.68300000
H        4.59600000       6.33700000       9.38100000
C        3.76000000       7.51200000       7.77900000
O        2.47400000       7.14600000       7.81700000
C        4.07300000       8.25800000       6.58300000
C        5.33400000       8.74600000       6.44900000
H        5.57400000       9.21700000       5.50600000
O        2.99700000       8.44100000       5.76000000
C        2.07800000       6.35300000       8.91700000
H        2.34800000       6.91200000       9.87600000
H        0.99400000       6.33100000       8.95100000
H        2.46800000       5.33000000       8.97300000
C        3.22200000       9.30400000       4.59100000
H        2.87500000       8.81200000       3.69400000
H        2.66000000      10.20800000       4.75500000
H        4.25100000       9.53800000       4.38600000
20
Lattice="12.959 0.0 0.0 0.0 12.959 0.0 0.0 0.0 12.959" Properties=species:S:1:pos:R:3 Time=0.0 energy=1.0 pbc="T T T"
H        7.34500000       8.96400000       6.93800000
C        6.35300000       8.53800000       7.09200000
C        5.97300000       7.90300000       8.28500000
H        6.71300000       7.62400000       9.06200000
C        4.67100000       7.37100000       8.44900000
H        4.48800000       6.78600000       9.35300000
C        3.63500000       7.55700000       7.57500000
O        2.39300000       7.06200000       7.56300000
C        4.02300000       8.29700000       6.39700000
C        5.33100000       8.73300000       6.15800000
H        5.54200000       9.37300000       5.32600000
O        2.94300000       8.41700000       5.50600000
C        1.94600000       6.44200000       8.79300000
H        1.45900000       7.11100000       9.55100000
H        1.24500000       5.71200000       8.45600000
H        2.80100000       5.96600000       9.22300000
C        3.00500000       9.32000000       4.38200000
H        2.70100000       8.73300000       3.49200000
H        2.38100000      10.23500000       4.54800000
H        4.01700000       9.65800000       4.11000000
20
Lattice="12.959 0.0 0.0 0.0 12.959 0.0 0.0 0.0 12.959" Properties=species:S:1:pos:R:3 Time=0.0 energy=1.0 pbc="T T T"
H        7.34500000       8.99600000       6.86600000
C        6.35000000       8.56200000       7.07000000
C        5.96400000       7.92400000       8.30300000
H        6.74300000       7.61600000       8.97800000
C        4.68700000       7.38400000       8.48600000
H        4.52800000       6.87900000       9.51100000
C        3.65600000       7.56200000       7.53900000
O        2.35900000       7.07100000       7.55800000
C        3.99500000       8.31300000       6.37500000
C        5.30600000       8.72000000       6.12600000
H        5.54700000       9.37300000       5.28200000
O        2.93800000       8.45900000       5.48000000
C        1.90700000       6.41800000       8.80800000
H        1.54300000       7.15000000       9.52300000
H        1.16300000       5.64800000       8.47300000
H        2.80200000       5.92800000       9.22900000
C        3.00700000       9.35500000       4.37100000
H        2.64400000       8.76000000       3.52800000
H        2.43100000      10.21100000       4.57700000
H        4.02200000       9.67900000       4.13400000
20
Lattice="12.959 0.0 0.0 0.0 12.959 0.0 0.0 0.0 12.959" Properties=species:S:1:pos:R:3 Time=0.0 energy=1.0 pbc="T T T"
H        7.41500000       8.82500000       6.77000000
C        6.50600000       8.44600000       7.18400000
C        6.40800000       7.74700000       8.36200000
H        7.32800000       7.48900000       8.96500000
C        5.18000000       7.29700000       8.90100000
H        5.06000000       6.66900000       9.81300000
C        4.01600000       7.64700000       8.16900000
O        2.69400000       7.29600000       8.55700000
C        4.08900000       8.35500000       6.99100000
C        5.31700000       8.69300000       6.47900000
H        5.39800000       9.15100000       5.48900000
O        2.89000000       8.61500000       6.41400000
C        2.63300000       6.19800000       9.50300000
H        3.11700000       6.40100000      10.47700000
H        1.56200000       5.95800000       9.69100000
H        3.33100000       5.42800000       9.14300000
C        2.75000000       9.22400000       5.08200000
H        1.74200000       9.60800000       5.10000000
H        3.43400000      10.10900000       4.92500000
H        3.06700000       8.50900000       4.27100000
20
Lattice="12.959 0.0 0.0 0.0 12.959 0.0 0.0 0.0 12.959" Properties=species:S:1:pos:R:3 Time=0.0 energy=1.0 pbc="T T T"
H        7.15000000       8.66800000       6.29800000
C        6.24200000       8.31600000       6.71800000
C        6.15900000       7.66700000       7.95900000
H        7.09000000       7.39300000       8.47700000
C        4.91900000       7.31600000       8.55700000
H        4.93000000       6.80500000       9.50400000
C        3.74000000       7.43600000       7.74800000
O        2.52300000       7.03400000       8.12600000
C        3.82800000       8.12900000       6.49100000
C        5.06800000       8.54900000       5.97400000
H        5.09600000       9.12100000       5.04600000
O        2.64300000       8.31700000       5.87100000
C        2.46000000       6.26800000       9.43400000
H        2.68700000       6.75800000      10.36200000
H        1.46400000       5.80900000       9.52400000
H        3.03100000       5.37600000       9.23800000
C        2.67900000       8.90400000       4.58300000
H        1.70500000       9.06300000       4.19200000
H        3.20500000       9.87700000       4.57700000
H        3.09400000       8.23200000       3.82300000
20
Lattice="12.959 0.0 0.0 0.0 12.959 0.0 0.0 0.0 12.959" Properties=species:S:1:pos:R:3 Time=0.0 energy=1.0 pbc="T T T"
H        7.07300000       9.56200000       6.62200000
C        6.20300000       8.97200000       7.04600000
C        6.43800000       8.10100000       8.08600000
H        7.45500000       7.83500000       8.22200000
C        5.34900000       7.44200000       8.66300000
H        5.48800000       6.60600000       9.32000000
C        4.03400000       7.50200000       8.07000000
O        2.92500000       6.90600000       8.51200000
C        3.81000000       8.52000000       7.04400000
C        4.95000000       9.18000000       6.50100000
H        4.81300000       9.88400000       5.70500000
O        2.53300000       8.61200000       6.73000000
C        3.02600000       5.97600000       9.66100000
H        3.81200000       6.25900000      10.40800000
H        1.97600000       5.85500000      10.09200000
H        3.29100000       4.98500000       9.20300000
C        2.26500000       8.82400000       5.34900000
H        1.32200000       8.28300000       5.23700000
H        2.08600000       9.89000000       5.09200000
H        3.04800000       8.38800000       4.68500000
20
Lattice="12.959 0.0 0.0 0.0 12.959 0.0 0.0 0.0 12.959" Properties=species:S:1:pos:R:3 Time=0.0 energy=1.0 pbc="T T T"
H        7.47300000       8.56100000       6.65600000
C        6.45500000       8.32300000       7.00800000
C        6.36800000       7.77300000       8.27400000
H        7.26700000       7.70400000       8.86600000
C        5.08200000       7.51200000       8.83200000
H        5.10200000       7.24000000       9.88400000
C        3.96100000       7.76900000       8.10100000
O        2.69100000       7.43800000       8.49200000
C        4.03500000       8.19100000       6.76400000
C        5.24600000       8.54900000       6.24100000
H        5.36000000       8.84600000       5.22500000
O        2.76600000       8.37000000       6.16900000
C        2.52500000       6.59100000       9.64000000
H        2.71200000       6.97100000      10.65800000
H        1.47400000       6.26600000       9.54800000
H        3.20900000       5.74500000       9.61700000
C        2.70300000       9.05200000       4.90100000
H        1.69700000       8.98900000       4.52700000
H        3.01100000      10.10900000       5.06900000
H        3.44800000       8.60000000       4.22200000
20
Lattice="12.959 0.0 0.0 0.0 12.959 0.0 0.0 0.0 12.959" Properties=species:S:1:pos:R:3 Time=0.0 energy=1.0 pbc="T T T"
H        7.28400000       8.82300000       6.21900000
C        6.34300000       8.55600000       6.66400000
C        6.28600000       7.69400000       7.78300000
H        7.18200000       7.15100000       8.16100000
C        5.12600000       7.23800000       8.39700000
H        5.21600000       6.57200000       9.23200000
C        3.92600000       7.65600000       7.85600000
O        2.72000000       7.24600000       8.37500000
C        3.90800000       8.51100000       6.71500000
C        5.08200000       8.91500000       6.07700000
H        5.04400000       9.59700000       5.18400000
O        2.60500000       8.75500000       6.20100000
C        2.70200000       5.94400000       9.02900000
H        1.67600000       5.72800000       9.28500000
H        3.01600000       5.22200000       8.26300000
H        3.30500000       5.95400000       9.87600000
C        2.49000000       9.05000000       4.78700000
H        1.40500000       9.31800000       4.67900000
H        3.04300000       9.96300000       4.49100000
H        2.76700000       8.23500000       4.08400000
20
Lattice="12.959 0.0 0.0 0.0 12.959 0.0 0.0 0.0 12.959" Properties=species:S:1:pos:R:3 Time=0.0 energy=1.0 pbc="T T T"
H        7.17500000       8.68200000       6.70500000
C        6.27600000       8.29000000       7.17600000
C        6.35800000       7.34700000       8.23000000
H        7.31200000       6.83100000       8.52800000
C        5.21200000       6.84300000       8.93600000
H        5.42900000       6.19100000       9.72200000
C        3.95800000       7.29400000       8.56900000
O        2.85500000       7.09900000       9.22000000
C        3.83900000       8.16600000       7.42900000
C        4.99400000       8.63500000       6.72700000
H        4.94200000       9.38300000       5.94200000
O        2.53800000       8.52500000       7.13200000
C        2.73600000       5.81400000       9.90000000
H        1.66300000       5.41600000       9.80000000
H        3.34800000       5.10300000       9.31900000
H        3.13800000       5.91100000      10.95600000
C        2.14000000       8.82600000       5.71700000
H        1.05400000       8.96900000       5.73700000
H        2.62700000       9.73000000       5.29300000
H        2.37700000       7.97300000       5.04400000
20
Lattice="12.959 0.0 0.0 0.0 12.959 0.0 0.0 0.0 12.959" Properties=species:S:1:pos:R:3 Time=0.0 energy=1.0 pbc="T T T"
H        7.00600000       9.12700000       7.14500000
C        6.08200000       8.69900000       7.53000000
C        6.11300000       7.82200000       8.68500000
H        7.07000000       7.60500000       9.14200000
C        4.89900000       7.27300000       9.13500000
H        4.96400000       6.62700000      10.05600000
C        3.73000000       7.50100000       8.47400000
O        2.55600000       7.06000000       8.89800000
C        3.69100000       8.33500000       7.36200000
C        4.88400000       8.95800000       6.90000000
H        4.84200000       9.64800000       6.03300000
O        2.45900000       8.69800000       6.83400000
C        2.49000000       6.32200000      10.15100000
H        1.49300000       5.78100000      10.09900000
H        3.29600000       5.54800000      10.40200000
H        2.55100000       7.06300000      10.96400000
C        1.96600000       8.17400000       5.57300000
H        0.97000000       7.74800000       5.77200000
H        1.81300000       9.07000000       4.94300000
H        2.64300000       7.41300000       5.15100000
20
Lattice="12.959 0.0 0.0 0.0 12.959 0.0 0.0 0.0 12.959" Properties=species:S:1:pos:R:3 Time=0.0 energy=1.0 pbc="T T T"
H        6.96800000       9.49900000       7.01200000
C        6.03200000       8.97400000       7.39900000
C        6.06000000       8.02800000       8.42500000
H        7.02000000       7.74100000       8.87900000
C        4.84800000       7.45900000       8.85800000
H        4.83600000       6.91600000       9.75800000
C        3.65100000       7.86100000       8.33000000
O        2.43900000       7.33400000       8.75800000
C        3.60800000       8.78800000       7.24400000
C        4.80500000       9.39600000       6.77900000
H        4.89900000      10.12900000       5.93500000
O        2.38100000       9.06200000       6.65100000
C        2.51700000       6.06100000       9.50900000
H        1.44900000       5.70800000       9.65400000
H        3.08200000       5.28300000       8.93800000
H        2.98400000       6.18100000      10.55100000
C        2.17500000       9.76100000       5.37400000
H        3.11800000       9.90500000       4.88600000
H        1.51300000       9.12800000       4.78700000
H        1.72500000      10.73700000       5.56800000
20
Lattice="12.959 0.0 0.0 0.0 12.959 0.0 0.0 0.0 12.959" Properties=species:S:1:pos:R:3 Time=0.0 energy=1.0 pbc="T T T"
H        7.54500000       9.31600000       6.43300000
C        6.58900000       8.88000000       6.82200000
C        6.68800000       8.19600000       8.02400000
H        7.64400000       8.19300000       8.48400000
C        5.49200000       7.63700000       8.52800000
H        5.50800000       6.97800000       9.35400000
C        4.29800000       7.74300000       7.77300000
O        3.05300000       7.24500000       8.06700000
C        4.22000000       8.54100000       6.62000000
C        5.41700000       9.03700000       6.15000000
H        5.44600000       9.67400000       5.28700000
O        3.02900000       8.61400000       5.97700000
C        2.83700000       6.59800000       9.34400000
H        3.48800000       6.86100000      10.12400000
H        1.77500000       6.76700000       9.58800000
H        2.90400000       5.54400000       9.22500000
C        3.14600000       8.99400000       4.55200000
H        3.64200000       9.93500000       4.34000000
H        3.65600000       8.14600000       4.07800000
H        2.07600000       9.09700000       4.21100000
20
Lattice="12.959 0.0 0.0 0.0 12.959 0.0 0.0 0.0 12.959" Properties=species:S:1:pos:R:3 Time=0.0 energy=1.0 pbc="T T T"
H        7.67000000       9.32900000       6.36300000
C        6.66900000       8.94600000       6.72400000
C        6.60600000       8.23900000       7.97500000
H        7.52600000       7.98800000       8.56700000
C        5.44200000       7.65100000       8.47100000
H        5.50000000       7.11000000       9.46500000
C        4.23600000       7.80300000       7.80300000
O        3.04500000       7.24500000       8.14200000
C        4.30000000       8.51500000       6.52500000
C        5.48700000       9.09900000       5.99400000
H        5.55200000       9.55000000       5.01100000
O        3.07500000       8.73600000       5.95600000
C        2.76300000       6.52400000       9.34800000
H        3.47400000       6.83700000      10.21500000
H        1.76500000       6.85000000       9.65100000
H        2.83000000       5.39200000       9.24800000
C        3.12600000       8.92500000       4.51100000
H        3.33200000      10.00100000       4.36500000
H        3.94900000       8.33800000       4.01900000
H        2.17200000       8.66500000       4.11300000
20
Lattice="12.959 0.0 0.0 0.0 12.959 0.0 0.0 0.0 12.959" Properties=species:S:1:pos:R:3 Time=0.0 energy=1.0 pbc="T T T"
H        7.15700000       8.94800000       7.02700000
C        6.17100000       8.62900000       7.39400000
C        6.02400000       7.81800000       8.55400000
H        6.83800000       7.46200000       9.17100000
C        4.76300000       7.31800000       8.86300000
H        4.74200000       6.73600000       9.82800000
C        3.65900000       7.63100000       8.08600000
O        2.39300000       7.04800000       8.28000000
C        3.80000000       8.59500000       7.03800000
C        5.04100000       9.11900000       6.72800000
H        5.11300000       9.87800000       5.90700000
O        2.59900000       8.93200000       6.41300000
C        2.35500000       6.13100000       9.40600000
H        2.56600000       6.69000000      10.29600000
H        1.37800000       5.70900000       9.49700000
H        3.13600000       5.33700000       9.30100000
C        2.55700000       9.25400000       4.96700000
H        2.29900000      10.30900000       4.88900000
H        3.50100000       9.07500000       4.47300000
H        1.81200000       8.55800000       4.50600000
20
Lattice="12.959 0.0 0.0 0.0 12.959 0.0 0.0 0.0 12.959" Properties=species:S:1:pos:R:3 Time=0.0 energy=1.0 pbc="T T T"
H        6.85300000       8.79900000       6.56300000
C        5.94700000       8.45200000       7.03000000
C        5.98100000       7.66300000       8.19900000
H        6.90100000       7.43400000       8.67800000
C        4.72500000       7.27900000       8.75100000
H        4.68700000       6.56700000       9.59900000
C        3.50800000       7.60600000       8.09000000
O        2.18700000       7.17300000       8.40100000
C        3.51500000       8.51500000       6.99600000
C        4.72900000       8.92500000       6.45600000
H        4.69200000       9.73800000       5.75600000
O        2.33200000       8.91800000       6.53200000
C        2.14000000       5.95200000       9.14400000
H        2.64500000       6.11500000      10.17100000
H        1.07800000       5.75100000       9.34400000
H        2.59300000       5.13600000       8.58400000
C        2.34000000       9.58100000       5.22600000
H        2.94600000      10.50000000       5.21100000
H        2.69100000       8.88400000       4.44300000
H        1.24000000       9.92000000       5.11600000
20
Lattice="12.959 0.0 0.0 0.0 12.959 0.0 0.0 0.0 12.959" Properties=species:S:1:pos:R:3 Time=0.0 energy=1.0 pbc="T T T"
H        6.97600000       9.30100000       7.18900000
C        6.04700000       8.67000000       7.29600000
C        5.99300000       7.76500000       8.31500000
H        6.90700000       7.37600000       8.84600000
C        4.72700000       7.21400000       8.63900000
H        4.72900000       6.46100000       9.44500000
C        3.52700000       7.61300000       7.97700000
O        2.27300000       7.21900000       8.38400000
C        3.65800000       8.58300000       6.92700000
C        4.93600000       9.07700000       6.52400000
H        5.03700000       9.83300000       5.75900000
O        2.50800000       8.95400000       6.31800000
C        2.20000000       6.25100000       9.49000000
H        2.52700000       6.70400000      10.48300000
H        1.15600000       6.05400000       9.49800000
H        2.75300000       5.36500000       9.28600000
C        2.50300000       9.23400000       4.90800000
H        2.54400000      10.32400000       4.79800000
H        3.31800000       8.73100000       4.40700000
H        1.58000000       8.81200000       4.54300000
20
Lattice="12.959 0.0 0.0 0.0 12.959 0.0 0.0 0.0 12.959" Properties=species:S:1:pos:R:3 Time=0.0 energy=1.0 pbc="T T T"
H        7.16500000       9.68300000       7.08400000
C        6.16000000       9.22600000       7.39800000
C        6.15600000       8.32900000       8.50200000
H        7.03000000       8.37700000       9.17500000
C        5.01500000       7.65900000       8.94500000
H        5.13600000       7.00400000       9.80600000
C        3.83500000       7.84600000       8.23100000
O        2.64500000       7.19200000       8.47900000
C        3.81700000       8.67800000       7.08400000
C        4.98300000       9.28600000       6.62400000
H        5.00800000       9.79000000       5.67300000
O        2.62300000       8.71800000       6.39400000
C        2.54700000       6.22800000       9.53900000
H        2.68700000       6.71700000      10.51400000
H        1.54800000       5.87900000       9.34300000
H        3.28300000       5.33400000       9.45500000
C        2.75600000       9.10800000       5.00600000
H        3.05700000      10.18500000       4.90000000
H        3.51900000       8.46400000       4.51700000
H        1.74900000       9.00200000       4.58000000
20
Lattice="12.959 0.0 0.0 0.0 12.959 0.0 0.0 0.0 12.959" Properties=species:S:1:pos:R:3 Time=0.0 energy=1.0 pbc="T T T"
H        6.52700000       9.89400000       6.08100000
C        5.76200000       9.42200000       6.61300000
C        6.06400000       8.68300000       7.81400000
H        7.11600000       8.50300000       8.08200000
C        5.04600000       8.15500000       8.56600000
H        5.28300000       7.74100000       9.56700000
C        3.70400000       8.21500000       8.13800000
O        2.64600000       7.60900000       8.73400000
C        3.41900000       8.86000000       6.89900000
C        4.41800000       9.57200000       6.19200000
H        4.14700000      10.08500000       5.25700000
O        2.09700000       8.75900000       6.44800000
C        2.92900000       7.05600000      10.05700000
H        3.16000000       7.76800000      10.79900000
H        1.95100000       6.62600000      10.29900000
H        3.68300000       6.24800000      10.04100000
C        1.90900000       8.70500000       5.00700000
H        1.99900000       9.72100000       4.55900000
H        2.71600000       8.05500000       4.60900000
H        0.98000000       8.27300000       4.78000000
20
Lattice="12.959 0.0 0.0 0.0 12.959 0.0 0.0 0.0 12.959" Properties=species:S:1:pos:R:3 Time=0.0 energy=1.0 pbc="T T T"
H        7.27600000       9.40600000       7.87900000
C        6.21300000       9.07200000       7.95400000
C        5.94700000       8.36400000       9.10400000
H        6.67900000       8.30000000       9.97000000
C        4.65900000       7.80500000       9.32000000
H        4.50000000       7.23400000      10.32800000
C        3.79600000       7.68500000       8.28300000
O        2.64400000       6.96700000       8.29100000
C        4.05300000       8.34100000       7.01300000
C        5.24100000       9.04400000       6.86900000
H        5.51500000       9.36600000       5.85900000
O        3.06200000       8.22300000       6.10100000
C        2.11000000       6.31300000       9.45100000
H        1.75500000       7.11800000      10.09100000
H        1.29100000       5.76300000       9.05700000
H        2.85500000       5.63000000      10.01600000
C        3.20200000       8.71400000       4.72900000
H        3.57300000       9.81400000       4.61600000
H        3.94500000       8.08600000       4.18200000
H        2.23300000       8.49500000       4.35300000
20
Lattice="12.959 0.0 0.0 0.0 12.959 0.0 0.0 0.0 12.959" Properties=species:S:1:pos:R:3 Time=0.0 energy=1.0 pbc="T T T"
H        6.76800000       9.90600000       7.85200000
C        5.90100000       9.25000000       7.88900000
C        5.72800000       8.49900000       9.03000000
H        6.43400000       8.61900000       9.80300000
C        4.58200000       7.69800000       9.18800000
H        4.53800000       7.07600000      10.01200000
C        3.56800000       7.70000000       8.19800000
O        2.46900000       6.91800000       8.25900000
C        3.76700000       8.45900000       6.93200000
C        4.98000000       9.15300000       6.78500000
H        5.12700000       9.85100000       5.93000000
O        2.70700000       8.48000000       6.06700000
C        2.28000000       6.11700000       9.42600000
H        2.22800000       6.85300000      10.27200000
H        1.27800000       5.57700000       9.40700000
H        3.07000000       5.43800000       9.60900000
C        3.16300000       8.94300000       4.75100000
H        3.40000000       9.98400000       4.71200000
H        3.95700000       8.25400000       4.39100000
H        2.24200000       8.90500000       4.08100000
20
Lattice="12.959 0.0 0.0 0.0 12.959 0.0 0.0 0.0 12.959" Properties=species:S:1:pos:R:3 Time=0.0 energy=1.0 pbc="T T T"
H        7.18000000       9.12700000       6.05100000
C        6.38800000       8.77000000       6.73200000
C        6.60800000       8.09500000       7.96800000
H        7.61000000       8.07500000       8.32700000
C        5.49300000       7.45000000       8.54700000
H        5.66100000       6.85200000       9.51700000
C        4.18600000       7.53100000       7.91300000
O        2.97900000       7.06800000       8.49900000
C        4.02600000       8.21600000       6.70700000
C        5.14200000       8.80000000       6.04900000
H        4.89800000       9.29000000       5.09200000
O        2.70400000       8.37000000       6.25100000
C        2.90900000       6.91500000       9.94600000
H        3.11500000       7.90200000      10.48000000
H        1.92100000       6.61100000      10.19700000
H        3.59800000       6.16200000      10.26100000
C        2.47500000       8.44900000       4.82300000
H        3.05200000       9.20500000       4.33700000
H        2.72200000       7.46000000       4.41800000