20
Lattice="13.13 0.0 0.0 0.0 13.13 0.0 0.0 0.0 13.13" Properties=species:S:1:pos:R:3 Time=0.0 energy=1.0 pbc="T T T"
H       13.70400000       4.23900000       6.88500000
C       13.32100000       4.96000000       7.63100000
C       13.50500000       6.35700000       7.52200000
O       14.26400000       6.93400000       6.45300000
C       13.03800000       7.17400000       8.57000000
H       13.20700000       8.22000000       8.45700000
C       12.32900000       6.68600000       9.72900000
H       11.96700000       7.36600000      10.48800000
C       12.09400000       5.26500000       9.75900000
C       12.60200000       4.44000000       8.67700000
H       12.53200000       3.37800000       8.96300000
O       11.28100000       4.66100000      10.68600000
C       10.24000000       5.50400000      11.34900000
H       10.65400000       6.34900000      11.94500000
H        9.52900000       5.80100000      10.52500000
H        9.75800000       4.77300000      12.03200000
C       13.42200000       7.40700000       5.35500000
H       12.94000000       6.63600000       4.76000000
H       12.76200000       8.18000000       5.73200000
H       14.13800000       7.88900000       4.65500000
20
Lattice="13.13 0.0 0.0 0.0 13.13 0.0 0.0 0.0 13.13" Properties=species:S:1:pos:R:3 Time=0.0 energy=1.0 pbc="T T T"
H       14.57600000       4.87500000       7.39900000
C       13.69300000       5.32000000       7.85400000
C       13.58200000       6.71600000       7.59200000
O       14.38800000       7.26000000       6.59500000
C       12.69300000       7.48000000       8.33500000
H       12.51100000       8.57100000       8.25400000
C       11.94800000       6.89000000       9.35200000
H       11.24000000       7.52900000       9.94700000
C       12.03500000       5.50900000       9.64500000
C       13.00100000       4.73100000       8.89000000
H       13.23100000       3.70200000       9.19800000
O       11.33300000       4.94100000      10.64800000
C       10.70800000       5.82000000      11.58900000
H       11.39600000       6.72000000      11.76500000
H        9.80600000       6.15600000      11.05900000
H       10.54200000       5.20000000      12.46700000
C       13.98400000       7.36700000       5.23000000
H       13.48600000       6.44200000       4.86500000
H       13.27400000       8.20800000       5.10900000
H       14.82600000       7.66000000       4.61400000
20
Lattice="13.13 0.0 0.0 0.0 13.13 0.0 0.0 0.0 13.13" Properties=species:S:1:pos:R:3 Time=0.0 energy=1.0 pbc="T T T"
H       14.66900000       4.75700000       7.63400000
C       13.86100000       5.39000000       7.97300000
C       13.82400000       6.74600000       7.66400000
O       14.72800000       7.32100000       6.79500000
C       12.81500000       7.54600000       8.20000000
H       12.68300000       8.56300000       7.86400000
C       11.92500000       7.01400000       9.19700000
H       11.26200000       7.72700000       9.59600000
C       12.08800000       5.72200000       9.57900000
C       13.02300000       4.86000000       8.98200000
H       13.07300000       3.86200000       9.35700000
O       11.45100000       5.06300000      10.61400000
C       10.76100000       5.79000000      11.67600000
H       11.35000000       6.50300000      12.21200000
H        9.81000000       6.29600000      11.40500000
H       10.46700000       5.02400000      12.46100000
C       14.18000000       7.15900000       5.40100000
H       13.92500000       6.14400000       5.13700000
H       13.27000000       7.74800000       5.34600000
H       14.98700000       7.50200000       4.73100000
20
Lattice="13.13 0.0 0.0 0.0 13.13 0.0 0.0 0.0 13.13" Properties=species:S:1:pos:R:3 Time=0.0 energy=1.0 pbc="T T T"
H       14.66200000       4.75400000       7.36700000
C       13.93600000       5.38700000       7.84500000
C       13.97600000       6.80800000       7.60300000
O       14.92600000       7.33600000       6.67300000
C       13.05400000       7.61500000       8.26200000
H       13.00500000       8.69500000       8.06100000
C       12.23200000       7.17900000       9.26800000
H       11.53800000       7.87000000       9.75500000
C       12.25000000       5.77700000       9.59500000
C       13.07300000       4.89900000       8.84100000
H       13.00600000       3.90100000       9.18800000
O       11.60500000       5.23200000      10.72600000
C       10.47000000       5.96200000      11.14100000
H       10.71000000       6.92900000      11.64600000
H        9.74500000       6.19700000      10.30900000
H        9.96800000       5.27200000      11.81400000
C       14.77800000       6.93500000       5.33300000
H       15.10400000       5.90500000       5.19300000
H       13.79600000       7.25800000       4.96200000
H       15.52600000       7.56600000       4.76200000
20
Lattice="13.13 0.0 0.0 0.0 13.13 0.0 0.0 0.0 13.13" Properties=species:S:1:pos:R:3 Time=0.0 energy=1.0 pbc="T T T"
H       14.09200000       4.79100000       6.87400000
C       13.71000000       5.45100000       7.62300000
C       13.93800000       6.79300000       7.58800000
O       14.88800000       7.37400000       6.66900000
C       13.40400000       7.66600000       8.52000000
H       13.61000000       8.77300000       8.43300000
C       12.56200000       7.20400000       9.53700000
H       12.05100000       7.85800000      10.23800000
C       12.24700000       5.80700000       9.61100000
C       12.86800000       4.96000000       8.65400000
H       12.70400000       3.89600000       8.73000000
O       11.33500000       5.25300000      10.51500000
C       10.04000000       5.88700000      10.48500000
H       10.03300000       6.75600000      11.12500000
H        9.74000000       6.15300000       9.44100000
H        9.38200000       5.06800000      10.91100000
C       14.65900000       7.01900000       5.26800000
H       14.22600000       6.04200000       5.14000000
H       13.94900000       7.70300000       4.81000000
H       15.63600000       7.10100000       4.75600000
20
Lattice="13.13 0.0 0.0 0.0 13.13 0.0 0.0 0.0 13.13" Properties=species:S:1:pos:R:3 Time=0.0 energy=1.0 pbc="T T T"
H       13.81700000       4.23700000       7.65900000
C       13.28400000       5.06000000       8.15300000
C       13.61400000       6.41700000       7.94800000
O       14.73800000       6.72000000       7.15700000
C       12.93600000       7.40300000       8.64700000
H       13.21000000       8.46200000       8.55300000
C       11.91500000       7.04700000       9.61600000
H       11.48100000       7.86100000      10.16800000
C       11.58300000       5.69900000       9.83200000
C       12.27700000       4.75600000       9.05900000
H       11.92100000       3.74000000       9.25300000
O       10.57700000       5.36900000      10.65900000
C       10.29500000       6.20900000      11.79700000
H       11.23200000       6.49800000      12.28300000
H        9.65400000       7.10600000      11.54200000
H        9.65200000       5.61000000      12.51000000
C       14.61300000       6.24400000       5.75900000
H       15.40900000       6.76700000       5.20900000
H       14.86900000       5.16600000       5.68000000
H       13.63900000       6.47400000       5.34500000
20
Lattice="13.13 0.0 0.0 0.0 13.13 0.0 0.0 0.0 13.13" Properties=species:S:1:pos:R:3 Time=0.0 energy=1.0 pbc="T T T"
H       13.74600000       4.23500000       7.54800000
C       13.21800000       5.01300000       8.11100000
C       13.64300000       6.33000000       7.96100000
O       14.71000000       6.70200000       7.14400000
C       12.96000000       7.33400000       8.67700000
H       13.36000000       8.33600000       8.52400000
C       12.00700000       7.04900000       9.58600000
H       11.45100000       7.82300000      10.07500000
C       11.57100000       5.68000000       9.79300000
C       12.20500000       4.67300000       9.00900000
H       11.98500000       3.59600000       9.09800000
O       10.59900000       5.24600000      10.74100000
C       10.34100000       6.25200000      11.87500000
H       11.22200000       6.73200000      12.31900000
H        9.69000000       7.09200000      11.45900000
H        9.79600000       5.60700000      12.63800000
C       14.59400000       6.23700000       5.74200000
H       15.20600000       6.91800000       5.13400000
H       14.94000000       5.18800000       5.71800000
H       13.57000000       6.23700000       5.41200000
20
Lattice="13.13 0.0 0.0 0.0 13.13 0.0 0.0 0.0 13.13" Properties=species:S:1:pos:R:3 Time=0.0 energy=1.0 pbc="T T T"
H       13.44300000       4.09800000       7.38500000
C       13.12100000       4.91600000       8.03000000
C       13.63100000       6.20700000       7.98900000
O       14.69200000       6.63200000       7.13200000
C       13.04900000       7.18500000       8.73900000
H       13.36400000       8.23700000       8.64100000
C       12.03200000       6.94900000       9.63100000
H       11.59300000       7.74300000      10.21000000
C       11.65700000       5.59700000       9.79700000
C       12.09100000       4.63200000       8.94100000
H       11.54500000       3.66100000       9.03500000
O       10.84900000       5.16200000      10.80600000
C       10.46600000       6.23600000      11.78500000
H       11.26500000       6.92400000      12.08300000
H        9.66600000       6.89600000      11.30200000
H       10.03700000       5.58200000      12.62300000
C       14.52900000       6.17200000       5.68200000
H       14.86000000       7.02000000       5.07700000
H       15.14300000       5.26800000       5.57400000
H       13.51200000       5.86500000       5.47000000
20
Lattice="13.13 0.0 0.0 0.0 13.13 0.0 0.0 0.0 13.13" Properties=species:S:1:pos:R:3 Time=0.0 energy=1.0 pbc="T T T"
H       13.50200000       4.15600000       7.28100000
C       13.09200000       4.88200000       7.99700000
C       13.63300000       6.16000000       7.95900000
O       14.67600000       6.58000000       7.10700000
C       13.06900000       7.22100000       8.71500000
H       13.47100000       8.22100000       8.65600000
C       12.05500000       6.92300000       9.70500000
H       11.59300000       7.76800000      10.25000000
C       11.68800000       5.60700000       9.83100000
C       12.09200000       4.61900000       8.88800000
H       11.61600000       3.67600000       8.90300000
O       10.89000000       5.15600000      10.81700000
C       10.47800000       6.21500000      11.75400000
H       11.27200000       6.88500000      12.12800000
H        9.67900000       6.75100000      11.27500000
H       10.13100000       5.73700000      12.61600000
C       14.53200000       6.16900000       5.73000000
H       14.76900000       7.00400000       5.03200000
H       15.21000000       5.31400000       5.53900000
H       13.50000000       5.83400000       5.45500000
20
Lattice="13.13 0.0 0.0 0.0 13.13 0.0 0.0 0.0 13.13" Properties=species:S:1:pos:R:3 Time=0.0 energy=1.0 pbc="T T T"
H       14.23100000       4.19000000       7.19900000
C       13.58100000       4.93900000       7.74700000
C       13.75800000       6.28800000       7.48400000
O       14.70300000       6.70100000       6.56200000
C       13.16800000       7.27500000       8.27900000
H       13.33900000       8.32000000       8.09000000
C       12.20800000       6.96500000       9.25200000
H       11.76000000       7.75600000       9.86000000
C       11.92300000       5.58200000       9.51700000
C       12.64100000       4.58000000       8.79300000
H       12.49200000       3.54100000       8.92400000
O       10.98800000       5.16700000      10.39500000
C       10.52500000       6.18800000      11.42400000
H       11.43300000       6.63500000      11.78700000
H        9.76700000       6.90500000      10.98500000
H       10.10200000       5.58500000      12.26000000
C       14.27000000       6.90700000       5.17800000
H       15.07900000       7.45800000       4.71000000
H       14.16700000       5.94100000       4.68200000
H       13.39600000       7.59800000       5.13100000
20
Lattice="13.13 0.0 0.0 0.0 13.13 0.0 0.0 0.0 13.13" Properties=species:S:1:pos:R:3 Time=0.0 energy=1.0 pbc="T T T"
H       14.14600000       4.36200000       7.48000000
C       13.60400000       5.08500000       7.99100000
C       13.77800000       6.41900000       7.64500000
O       14.75600000       6.62900000       6.60600000
C       13.01100000       7.41600000       8.19700000
H       13.05600000       8.50400000       7.98100000
C       12.02600000       7.11700000       9.18400000
H       11.22000000       7.83300000       9.46600000
C       11.87800000       5.75500000       9.53000000
C       12.61500000       4.76800000       8.92000000
H       12.47000000       3.71600000       9.19400000
O       10.94200000       5.29600000      10.44900000
C       10.35700000       6.18300000      11.39500000
H       11.14900000       6.33700000      12.14800000
H        9.94100000       7.10100000      11.01400000
H        9.53500000       5.55300000      11.81500000
C       14.13300000       7.16700000       5.42800000
H       14.88800000       7.27400000       4.64900000
H       13.34100000       6.50000000       5.04700000
H       13.75800000       8.14300000       5.63800000
20
Lattice="13.13 0.0 0.0 0.0 13.13 0.0 0.0 0.0 13.13" Properties=species:S:1:pos:R:3 Time=0.0 energy=1.0 pbc="T T T"
H       14.10900000       4.21400000       7.67400000
C       13.56600000       5.02600000       8.08000000
C       13.64100000       6.35700000       7.59500000
O       14.63500000       6.68000000       6.60400000
C       12.87400000       7.30800000       8.17700000
H       13.01200000       8.34900000       7.88300000
C       11.96600000       7.08400000       9.26000000
H       11.39600000       7.98600000       9.52100000
C       11.79900000       5.74900000       9.63100000
C       12.61400000       4.77000000       9.06200000
H       12.51100000       3.79900000       9.49100000
O       10.85300000       5.29800000      10.52500000
C       10.17000000       6.29400000      11.32500000
H       10.80200000       6.49400000      12.19300000
H       10.07000000       7.26500000      10.91900000
H        9.16900000       5.91300000      11.66800000
C       13.94600000       7.20600000       5.37600000
H       14.66600000       7.03700000       4.59000000
H       12.99000000       6.67900000       5.20300000
H       13.66400000       8.22800000       5.50700000
20
Lattice="13.13 0.0 0.0 0.0 13.13 0.0 0.0 0.0 13.13" Properties=species:S:1:pos:R:3 Time=0.0 energy=1.0 pbc="T T T"
H       14.13700000       4.17100000       7.83800000
C       13.40500000       5.03000000       8.10900000
C       13.50300000       6.31200000       7.58900000
O       14.42300000       6.44000000       6.46700000
C       12.81400000       7.35800000       8.24500000
H       12.92700000       8.34800000       7.84800000
C       11.89500000       7.13600000       9.29300000
H       11.39800000       7.95200000       9.81500000
C       11.75600000       5.78700000       9.68500000
C       12.53200000       4.79900000       9.19100000
H       12.45200000       3.82000000       9.64900000
O       10.77400000       5.37200000      10.57200000
C        9.98400000       6.38300000      11.18000000
H       10.52900000       7.13700000      11.72200000
H        9.46000000       6.96700000      10.41900000
H        9.26000000       5.82800000      11.76700000
C       13.74300000       6.95100000       5.22700000
H       14.54000000       6.93600000       4.50100000
H       12.89600000       6.32500000       4.96000000
H       13.31100000       7.94200000       5.44900000
20
Lattice="13.13 0.0 0.0 0.0 13.13 0.0 0.0 0.0 13.13" Properties=species:S:1:pos:R:3 Time=0.0 energy=1.0 pbc="T T T"
H       13.88600000       4.01600000       7.63800000
C       13.24500000       4.88700000       8.05000000
C       13.50400000       6.17200000       7.59700000
O       14.39000000       6.38200000       6.49800000
C       12.78900000       7.28100000       8.09100000
H       12.88500000       8.32900000       7.77600000
C       11.80800000       7.07600000       9.10400000
H       11.22000000       7.91500000       9.48600000
C       11.62000000       5.83700000       9.64400000
C       12.35700000       4.71700000       9.13000000
H       12.23300000       3.71600000       9.59700000
O       10.86700000       5.67200000      10.78900000
C        9.74200000       6.43900000      10.98300000
H        9.90700000       7.54100000      10.90200000
H        8.86900000       6.19800000      10.30500000
H        9.38500000       6.19000000      12.00200000
C       13.68700000       6.59300000       5.28900000
H       14.33800000       6.84000000       4.44700000
H       13.11800000       5.67900000       5.08200000
H       12.93600000       7.39900000       5.47600000
20
Lattice="13.13 0.0 0.0 0.0 13.13 0.0 0.0 0.0 13.13" Properties=species:S:1:pos:R:3 Time=0.0 energy=1.0 pbc="T T T"
H       13.65500000       4.07800000       7.73300000
C       13.16500000       4.91300000       8.12200000
C       13.37300000       6.13400000       7.57900000
O       14.34300000       6.32900000       6.55300000
C       12.72300000       7.26500000       7.99900000
H       12.98400000       8.22500000       7.58600000
C       11.78500000       7.11500000       9.04900000
H       11.35000000       8.02000000       9.44600000
C       11.58800000       5.85800000       9.62700000
C       12.25200000       4.72800000       9.15300000
H       12.13000000       3.77700000       9.61200000
O       10.86100000       5.60800000      10.83500000
C        9.65400000       6.45600000      10.90500000
H        9.84100000       7.48800000      10.65300000
H        8.90600000       6.01700000      10.28100000
H        9.29700000       6.52300000      11.95000000
C       13.68000000       6.43000000       5.24800000
H       14.47700000       6.71900000       4.54800000
H       13.25300000       5.46500000       4.89200000
H       12.96900000       7.24200000       5.16400000
20
Lattice="13.13 0.0 0.0 0.0 13.13 0.0 0.0 0.0 13.13" Properties=species:S:1:pos:R:3 Time=0.0 energy=1.0 pbc="T T T"
H       13.85300000       4.14400000       8.30400000
C       13.16300000       4.93400000       8.51400000
C       13.27000000       6.06400000       7.75300000
O       14.26300000       6.05600000       6.74800000
C       12.46800000       7.18800000       7.94300000
H       12.69300000       8.06900000       7.31800000
C       11.40500000       7.21600000       8.82500000
H       10.72900000       8.05900000       8.92600000
C       11.34800000       6.08600000       9.69700000
C       12.17100000       4.92300000       9.53300000
H       12.11000000       4.14400000      10.26000000
O       10.50200000       6.00000000      10.81100000
C        9.45300000       7.04600000      10.90600000
H        9.91400000       7.90600000      11.45000000
H        9.09800000       7.51300000       9.93300000
H        8.66300000       6.53300000      11.41600000
C       13.77900000       6.16800000       5.34700000
H       14.72600000       6.48000000       4.86700000
H       13.43300000       5.21500000       4.97000000
H       12.95300000       6.89200000       5.25600000
20
Lattice="13.13 0.0 0.0 0.0 13.13 0.0 0.0 0.0 13.13" Properties=species:S:1:pos:R:3 Time=0.0 energy=1.0 pbc="T T T"
H       13.07600000       3.91200000       7.87000000
C       12.77200000       4.86000000       8.26900000
C       13.37900000       6.06700000       7.87600000
O       14.51900000       6.06500000       7.00200000
C       12.85100000       7.28800000       8.32200000
H       13.16600000       8.28000000       8.01200000
C       11.82100000       7.31200000       9.24900000
H       11.45100000       8.24400000       9.70200000
C       11.23700000       6.07100000       9.73100000
C       11.77100000       4.88100000       9.28700000
H       11.30000000       3.90800000       9.57100000
O       10.22500000       5.96000000      10.63900000
C        9.80900000       7.01500000      11.45600000
H       10.60000000       7.44100000      12.12700000
H        9.42000000       7.83300000      10.89800000
H        9.01400000       6.60800000      12.00300000
C       14.16500000       6.45500000       5.66600000
H       14.49400000       5.60700000       5.02500000
H       13.08600000       6.64400000       5.61700000
H       14.59400000       7.43500000       5.35100000
20
Lattice="13.13 0.0 0.0 0.0 13.13 0.0 0.0 0.0 13.13" Properties=species:S:1:pos:R:3 Time=0.0 energy=1.0 pbc="T T T"
H       13.19700000       3.87600000       7.89200000
C       12.86700000       4.83900000       8.25900000
C       13.44700000       6.07200000       7.89200000
O       14.48400000       5.98500000       6.94000000
C       12.94700000       7.27100000       8.40900000
H       13.29900000       8.24200000       8.08600000
C       11.83200000       7.28100000       9.30200000
H       11.47600000       8.23700000       9.73400000
C       11.23600000       6.06400000       9.62700000
C       11.77500000       4.87400000       9.14000000
H       11.18400000       3.99900000       9.34900000
O       10.27100000       5.93600000      10.53300000
C        9.93200000       7.11600000      11.30900000
H       10.90500000       7.53500000      11.73800000
H        9.40700000       7.80200000      10.65300000
H        9.36000000       6.80100000      12.14600000
C       14.19800000       6.37900000       5.55600000
H       14.33100000       5.52100000       4.87000000
H       13.13400000       6.61400000       5.53100000
H       14.89100000       7.19900000       5.20600000
20
Lattice="13.13 0.0 0.0 0.0 13.13 0.0 0.0 0.0 13.13" Properties=species:S:1:pos:R:3 Time=0.0 energy=1.0 pbc="T T T"
H       13.55100000       3.76800000       7.75900000
C       13.11600000       4.65100000       8.15800000
C       13.50600000       5.95500000       7.70200000
O       14.43200000       6.00300000       6.68800000
C       12.96400000       7.14100000       8.16500000
H       13.24100000       8.07300000       7.64000000
C       12.03300000       7.08200000       9.16200000
H       11.57700000       7.96600000       9.55900000
C       11.70800000       5.79900000       9.72300000
C       12.28000000       4.58200000       9.28900000
H       11.99800000       3.68700000       9.81000000
O       10.74100000       5.63700000      10.71200000
C       10.21600000       6.84900000      11.41100000
H       10.96300000       7.60100000      11.47200000
H        9.38300000       7.22200000      10.86100000
H        9.94700000       6.51400000      12.42200000
C       13.74400000       5.80900000       5.41300000
H       13.04400000       4.96800000       5.55700000
H       13.24200000       6.76100000       5.08500000
H       14.49700000       5.55200000       4.68400000
20
Lattice="13.13 0.0 0.0 0.0 13.13 0.0 0.0 0.0 13.13" Properties=species:S:1:pos:R:3 Time=0.0 energy=1.0 pbc="T T T"
H       13.63100000       4.02300000       7.94800000
C       13.09000000       4.90500000       8.25600000
C       13.39700000       6.11400000       7.59000000
O       14.16600000       6.10800000       6.45300000
C       12.95800000       7.28000000       8.16900000
H       13.31500000       8.23300000       7.84700000
C       12.04700000       7.18600000       9.29500000
H       11.67100000       8.15000000       9.67700000
C       11.56800000       5.94000000       9.73400000
C       12.13300000       4.78200000       9.22000000
H       11.86100000       3.83500000       9.70200000
O       10.67600000       5.73900000      10.74200000
C       10.12900000       6.88300000      11.44700000
H       10.85800000       7.40200000      12.05900000
H        9.67700000       7.53700000      10.79100000
H        9.40400000       6.33500000      12.07500000
C       13.47200000       6.01300000       5.19600000
H       13.23500000       4.96900000       5.03100000
H       12.60600000       6.71300000       5.21400000
H       14.22300000       6.33500000       4.44900000
20
Lattice="13.13 0.0 0.0 0.0 13.13 0.0 0.0 0.0 13.13" Properties=species:S:1:pos:R:3 Time=0.0 energy=1.0 pbc="T T T"
H       13.32400000       4.17300000       7.65300000
C       12.92800000       5.05400000       8.11800000
C       13.26600000       6.29900000       7.64600000
O       14.11400000       6.38700000       6.55900000
C       12.79600000       7.43600000       8.29700000
H       13.16800000       8.43900000       8.00600000
C       11.92800000       7.36000000       9.41700000
H       11.73800000       8.24700000       9.97400000
C       11.46000000       6.10400000       9.79100000
C       11.96500000       4.97100000       9.14200000
H       11.73100000       4.00100000       9.53300000
O       10.73900000       5.93600000      10.94800000
C       10.01400000       7.14300000      11.38600000
H       10.58300000       7.75900000      12.04400000
H        9.66600000       7.67000000      10.44500000
H        9.10600000       6.78300000      11.88400000
C       13.43700000       6.39200000       5.25100000
H       13.16100000       5.33500000       4.97600000
H       12.50200000       6.97600000       5.17400000
H       14.19300000       6.75900000       4.58100000
20
Lattice="13.13 0.0 0.0 0.0 13.13 0.0 0.0 0.0 13.13" Properties=species:S:1:pos:R:3 Time=0.0 energy=1.0 pbc="T T T"
H       13.55600000       4.56700000       8.18300000
C       12.96100000       5.38800000       8.54200000
C       13.41000000       6.63200000       8.00100000
O       14.48900000       6.55500000       7.12700000
C       12.84300000       7.84100000       8.40600000
H       13.33500000       8.69200000       7.93100000
C       11.78600000       7.92100000       9.31500000
H       11.39300000       8.85400000       9.68600000
C       11.37900000       6.67500000       9.88200000
C       12.00400000       5.43300000       9.54600000
H       11.68400000       4.53300000      10.11000000
O       10.52600000       6.55900000      10.94200000
C        9.78100000       7.81300000      11.29800000
H       10.51200000       8.40200000      11.95200000
H        9.51300000       8.31500000      10.35600000
H        8.87000000       7.52100000      11.86600000
C       14.25600000       6.63400000       5.70600000
H       13.55200000       5.76400000       5.47500000
H       13.73000000       7.56700000       5.41100000
H       15.20900000       6.56000000       5.19400000
20
Lattice="13.13 0.0 0.0 0.0 13.13 0.0 0.0 0.0 13.13" Properties=species:S:1:pos:R:3 Time=0.0 energy=1.0 pbc="T T T"
H       12.88200000       4.41400000       7.80600000
C       12.68300000       5.37100000       8.40700000
C       13.42800000       6.50600000       8.07800000
O       14.39100000       6.34600000       7.04400000
C       13.10900000       7.59800000       8.79900000
H       13.56100000       8.58400000       8.55200000
C       12.17400000       7.64800000       9.88600000
H       11.96800000       8.60700000      10.32400000
C       11.48500000       6.48200000      10.19600000
C       11.74800000       5.33500000       9.40300000
H       11.35400000       4.38000000       9.68700000
O       10.51300000       6.39800000      11.12000000
C        9.77600000       7.57700000      11.53400000
H       10.35800000       8.12900000      12.15800000
H        9.48400000       8.07700000      10.60600000
H        8.89800000       7.15800000      12.04200000
C       13.98700000       6.30100000       5.66600000
H       13.25500000       5.51300000       5.43800000
H       13.52800000       7.30100000       5.45800000
H       14.92000000       6.18000000       5.05100000
20
Lattice="13.13 0.0 0.0 0.0 13.13 0.0 0.0 0.0 13.13" Properties=species:S:1:pos:R:3 Time=0.0 energy=1.0 pbc="T T T"
H       12.82600000       4.12200000       7.90200000
C       12.56800000       4.99500000       8.43900000
C       13.22400000       6.16100000       7.99000000
O       14.15800000       6.18300000       6.95500000
C       13.06900000       7.37900000       8.65100000
H       13.60500000       8.22500000       8.28000000
C       12.17900000       7.48500000       9.75600000
H       12.03000000       8.46400000      10.22500000
C       11.34800000       6.39000000       9.99800000
C       11.53500000       5.12800000       9.31700000
H       10.86500000       4.27800000       9.54400000
O       10.26800000       6.37800000      10.85500000
C       10.05500000       7.61500000      11.58900000
H       10.89300000       7.92600000      12.26400000
H        9.77600000       8.43500000      10.84700000
H        9.20400000       7.34700000      12.17300000
C       13.53900000       6.24200000       5.61500000
H       13.03800000       5.32300000       5.24200000
H       12.81400000       7.09300000       5.56100000
H       14.34900000       6.46200000       4.92400000
20
Lattice="13.13 0.0 0.0 0.0 13.13 0.0 0.0 0.0 13.13" Properties=species:S:1:pos:R:3 Time=0.0 energy=1.0 pbc="T T T"
H       12.39700000       3.79400000       7.89400000
C       12.31900000       4.75200000       8.33100000
C       13.30700000       5.71000000       7.97100000
O       14.31500000       5.54000000       7.00100000
C       13.14800000       7.03100000       8.41200000
H       13.83800000       7.73000000       8.03300000
C       12.16200000       7.36500000       9.34700000
H       12.02200000       8.42700000       9.61500000
C       11.26900000       6.40400000       9.79300000
C       11.36800000       5.08000000       9.27200000
H       10.64900000       4.30800000       9.59600000
O       10.29400000       6.62800000      10.66200000
C       10.00400000       7.91500000      11.21700000
H       10.72400000       8.32200000      11.87400000
H        9.74700000       8.62200000      10.35000000
H        9.11700000       7.66500000      11.75300000
C       13.75900000       5.61000000       5.70400000
H       12.87400000       4.96500000       5.55300000
H       13.49300000       6.67200000       5.52700000
H       14.53700000       5.24400000       4.98200000
20