13
Lattice="12.8 0.0 0.0 0.0 12.8 0.0 0.0 0.0 12.8" Properties=species:S:1:pos:R:3 Time=0.0 energy=1.0 pbc="T T T"
H        6.57800000       1.76500000       7.45100000
C        5.85800000       2.59800000       7.35600000
C        4.47500000       2.59100000       7.67100000
H        3.88300000       1.70100000       7.87300000
C        3.72200000       3.80600000       7.68500000
H        2.69000000       3.83200000       8.03900000
C        4.40400000       5.02000000       7.34900000
H        3.80800000       5.94000000       7.31100000
C        5.66800000       4.97800000       6.73900000
C        6.45300000       3.79200000       6.87000000
H        7.46400000       3.80300000       6.38700000
O        6.20000000       6.20000000       6.20000000
H        7.19200000       6.23300000       6.50100000
13
Lattice="12.8 0.0 0.0 0.0 12.8 0.0 0.0 0.0 12.8" Properties=species:S:1:pos:R:3 Time=0.0 energy=1.0 pbc="T T T"
H        6.55900000       1.76300000       7.43200000
C        5.91400000       2.61800000       7.40400000
C        4.50500000       2.66600000       7.71300000
H        3.97900000       1.69200000       7.94400000
C        3.75400000       3.87300000       7.68000000
H        2.66400000       3.89300000       7.89600000
C        4.37000000       5.04800000       7.26200000
H        3.71900000       5.99900000       7.26300000
C        5.73100000       5.03900000       6.73300000
C        6.42600000       3.79800000       6.85000000
H        7.49000000       3.83300000       6.50800000
O        6.20000000       6.20000000       6.20000000
H        7.22600000       6.32300000       6.41500000
13
Lattice="12.8 0.0 0.0 0.0 12.8 0.0 0.0 0.0 12.8" Properties=species:S:1:pos:R:3 Time=0.0 energy=1.0 pbc="T T T"
H        6.45100000       1.71000000       7.44500000
C        5.88900000       2.67100000       7.41400000
C        4.51700000       2.69400000       7.73900000
H        4.07200000       1.74500000       8.00900000
C        3.79000000       3.88300000       7.66900000
H        2.72800000       3.89300000       7.84200000
C        4.36300000       5.06900000       7.19200000
H        3.77400000       5.98700000       7.23600000
C        5.70400000       5.05100000       6.77300000
C        6.42500000       3.84300000       6.83100000
H        7.50600000       3.81000000       6.57100000
O        6.20000000       6.20000000       6.20000000
H        7.19700000       6.29100000       6.36100000
13
Lattice="12.8 0.0 0.0 0.0 12.8 0.0 0.0 0.0 12.8" Properties=species:S:1:pos:R:3 Time=0.0 energy=1.0 pbc="T T T"
H        6.82300000       1.90800000       7.70800000
C        6.21000000       2.73900000       7.45300000
C        4.87100000       2.52000000       7.65200000
H        4.70300000       1.60400000       8.17200000
C        4.00900000       3.57900000       7.49500000
H        3.04200000       3.43200000       7.87600000
C        4.44900000       4.76300000       6.90500000
H        3.72900000       5.56000000       6.80600000
C        5.81200000       4.96100000       6.64700000
C        6.73600000       3.94300000       6.90400000
H        7.84500000       4.05300000       6.83700000
O        6.20000000       6.20000000       6.20000000
H        7.18400000       6.37700000       6.33300000
13
Lattice="12.8 0.0 0.0 0.0 12.8 0.0 0.0 0.0 12.8" Properties=species:S:1:pos:R:3 Time=0.0 energy=1.0 pbc="T T T"
H        5.93500000       2.40700000       8.66800000
C        5.43600000       3.29500000       8.38100000
C        4.06400000       3.52500000       8.70000000
H        3.51700000       3.09000000       9.50500000
C        3.38400000       4.63300000       8.12400000
H        2.35700000       4.78000000       8.32600000
C        4.08700000       5.51500000       7.24000000
H        3.59300000       6.39700000       6.84400000
C        5.45300000       5.26100000       6.97800000
C        6.07800000       4.12200000       7.44100000
H        7.09700000       3.88800000       7.04500000
O        6.20000000       6.20000000       6.20000000
H        7.09900000       6.26600000       6.64000000
13
Lattice="12.8 0.0 0.0 0.0 12.8 0.0 0.0 0.0 12.8" Properties=species:S:1:pos:R:3 Time=0.0 energy=1.0 pbc="T T T"
H        6.30900000       3.99000000      10.21800000
C        5.83200000       4.72100000       9.62100000
C        4.63600000       5.29700000      10.02900000
H        4.34500000       5.13600000      11.09200000
C        4.01600000       6.23900000       9.21500000
H        3.04200000       6.73800000       9.45000000
C        4.49500000       6.52600000       7.92400000
H        4.05400000       7.27500000       7.24200000
C        5.68200000       5.92700000       7.48700000
C        6.33200000       5.01500000       8.34000000
H        7.25900000       4.58900000       7.98900000
O        6.20000000       6.20000000       6.20000000
H        7.12400000       5.80500000       6.10800000
13
Lattice="12.8 0.0 0.0 0.0 12.8 0.0 0.0 0.0 12.8" Properties=species:S:1:pos:R:3 Time=0.0 energy=1.0 pbc="T T T"
H        6.37200000       3.47900000       9.93900000
C        5.82800000       4.24000000       9.31300000
C        4.72900000       4.87000000       9.91600000
H        4.27000000       4.68500000      10.86300000
C        3.99500000       5.77200000       9.08200000
H        3.15700000       6.25100000       9.57200000
C        4.45500000       6.23200000       7.84600000
H        3.84200000       6.97400000       7.31300000
C        5.66300000       5.74000000       7.35900000
C        6.27600000       4.72500000       8.07000000
H        7.15500000       4.21300000       7.66900000
O        6.20000000       6.20000000       6.20000000
H        7.06000000       5.71400000       6.09200000
13
Lattice="12.8 0.0 0.0 0.0 12.8 0.0 0.0 0.0 12.8" Properties=species:S:1:pos:R:3 Time=0.0 energy=1.0 pbc="T T T"
H        5.83500000       3.35100000       9.69800000
C        5.34800000       4.08400000       9.02900000
C        4.00700000       4.42300000       9.30500000
H        3.43100000       4.04500000      10.18200000
C        3.39900000       5.38600000       8.44300000
H        2.38300000       5.62200000       8.61900000
C        4.12200000       5.89300000       7.36400000
H        3.67900000       6.60100000       6.65200000
C        5.49500000       5.53300000       7.11400000
C        6.11600000       4.59500000       7.97500000
H        7.18900000       4.26300000       7.81200000
O        6.20000000       6.20000000       6.20000000
H        7.02000000       5.76000000       5.91900000
13
Lattice="12.8 0.0 0.0 0.0 12.8 0.0 0.0 0.0 12.8" Properties=species:S:1:pos:R:3 Time=0.0 energy=1.0 pbc="T T T"
H        5.78900000       4.43300000      10.37200000
C        5.40600000       5.24600000       9.69500000
C        4.43200000       6.15300000       9.98100000
H        4.06000000       6.34300000      11.04200000
C        4.19300000       7.22300000       9.09700000
H        3.55000000       8.08100000       9.27800000
C        4.74200000       7.29000000       7.84500000
H        4.72400000       8.15800000       7.22400000
C        5.64400000       6.26400000       7.43400000
C        5.98100000       5.26900000       8.39900000
H        6.78800000       4.57100000       8.09200000
O        6.20000000       6.20000000       6.20000000
H        7.13900000       5.88100000       6.22200000
13
Lattice="12.8 0.0 0.0 0.0 12.8 0.0 0.0 0.0 12.8" Properties=species:S:1:pos:R:3 Time=0.0 energy=1.0 pbc="T T T"
H        6.16700000       3.97200000      10.24200000
C        5.66800000       4.67500000       9.56900000
C        4.45800000       5.30300000       9.99600000
H        3.92000000       5.04000000      10.92000000
C        3.83100000       6.16500000       9.10000000
H        2.87500000       6.65700000       9.40000000
C        4.37500000       6.49400000       7.81400000
H        3.92500000       7.08600000       7.06200000
C        5.63800000       5.95200000       7.53100000
C        6.22900000       5.02300000       8.33900000
H        7.05800000       4.43400000       8.00500000
O        6.20000000       6.20000000       6.20000000
H        7.15200000       5.77300000       6.06500000
13
Lattice="12.8 0.0 0.0 0.0 12.8 0.0 0.0 0.0 12.8" Properties=species:S:1:pos:R:3 Time=0.0 energy=1.0 pbc="T T T"
H        6.00400000       3.94300000      10.27300000
C        5.52600000       4.61400000       9.55500000
C        4.35000000       5.27100000       9.87200000
H        3.98000000       5.11600000      10.86700000
C        3.90700000       6.28700000       9.00700000
H        3.05400000       6.94400000       9.17900000
C        4.43600000       6.51300000       7.75600000
H        3.89100000       7.22700000       7.09400000
C        5.62600000       5.77300000       7.36200000
C        6.08200000       4.74700000       8.25000000
H        6.96900000       4.17200000       7.97100000
O        6.20000000       6.20000000       6.20000000
H        7.09700000       5.76900000       6.18000000
13
Lattice="12.8 0.0 0.0 0.0 12.8 0.0 0.0 0.0 12.8" Properties=species:S:1:pos:R:3 Time=0.0 energy=1.0 pbc="T T T"
H        5.75200000       3.43300000       9.91700000
C        5.43900000       4.38200000       9.36600000
C        4.35800000       5.27300000       9.89200000
H        4.04500000       5.24300000      10.87500000
C        3.93700000       6.29300000       9.07400000
H        3.00700000       6.86200000       9.47000000
C        4.53400000       6.62100000       7.84500000
H        4.15900000       7.50100000       7.27200000
C        5.65300000       5.91100000       7.41400000
C        5.98700000       4.74700000       8.13800000
H        6.88100000       4.25800000       7.72300000
O        6.20000000       6.20000000       6.20000000
H        7.08500000       5.76400000       6.05600000
13
Lattice="12.8 0.0 0.0 0.0 12.8 0.0 0.0 0.0 12.8" Properties=species:S:1:pos:R:3 Time=0.0 energy=1.0 pbc="T T T"
H        5.05700000       2.83000000       9.00700000
C        4.95400000       3.90100000       8.77300000
C        4.01100000       4.72700000       9.40700000
H        3.54100000       4.37600000      10.30000000
C        3.65700000       5.99500000       8.79400000
H        2.91000000       6.57600000       9.30600000
C        4.28900000       6.40000000       7.64100000
H        4.23300000       7.32100000       7.15500000
C        5.39300000       5.60200000       7.12200000
C        5.62900000       4.31000000       7.63900000
H        6.46500000       3.74400000       7.26300000
O        6.20000000       6.20000000       6.20000000
H        6.93600000       5.58800000       5.75600000
13
Lattice="12.8 0.0 0.0 0.0 12.8 0.0 0.0 0.0 12.8" Properties=species:S:1:pos:R:3 Time=0.0 energy=1.0 pbc="T T T"
H        6.18400000       3.74300000      10.17500000
C        5.77200000       4.41100000       9.45300000
C        4.47400000       4.99000000       9.71500000
H        3.96700000       4.57300000      10.60400000
C        3.92700000       5.99600000       8.95900000
H        3.00700000       6.43800000       9.24300000
C        4.58400000       6.48300000       7.82800000
H        4.16600000       7.37000000       7.23000000
C        5.70400000       5.81500000       7.33600000
C        6.32800000       4.84500000       8.21000000
H        7.32000000       4.52400000       7.82700000
O        6.20000000       6.20000000       6.20000000
H        7.09500000       5.72800000       5.98900000
13
Lattice="12.8 0.0 0.0 0.0 12.8 0.0 0.0 0.0 12.8" Properties=species:S:1:pos:R:3 Time=0.0 energy=1.0 pbc="T T T"
H        6.53800000       3.54400000      10.01700000
C        5.97900000       4.30600000       9.38400000
C        4.72400000       4.71700000       9.87600000
H        4.31500000       4.47300000      10.82100000
C        3.95200000       5.52500000       8.99400000
H        2.92400000       5.74400000       9.34900000
C        4.43300000       6.02700000       7.76700000
H        3.71000000       6.66800000       7.24100000
C        5.68500000       5.65800000       7.38100000
C        6.43100000       4.75100000       8.13700000
H        7.31300000       4.30900000       7.74900000
O        6.20000000       6.20000000       6.20000000
H        7.11000000       5.85800000       5.82400000
13
Lattice="12.8 0.0 0.0 0.0 12.8 0.0 0.0 0.0 12.8" Properties=species:S:1:pos:R:3 Time=0.0 energy=1.0 pbc="T T T"
H        5.65000000       2.82700000       9.29900000
C        5.22900000       3.83400000       8.85000000
C        3.98000000       4.31700000       9.22200000
H        3.48200000       3.96200000      10.05000000
C        3.45000000       5.43600000       8.50400000
H        2.43200000       5.77900000       8.77100000
C        4.22600000       6.10700000       7.51000000
H        3.86500000       6.98500000       6.97500000
C        5.45500000       5.54700000       7.19000000
C        6.00500000       4.44600000       7.85200000
H        6.86700000       3.91500000       7.56400000
O        6.20000000       6.20000000       6.20000000
H        7.16700000       5.96000000       6.26100000
13
Lattice="12.8 0.0 0.0 0.0 12.8 0.0 0.0 0.0 12.8" Properties=species:S:1:pos:R:3 Time=0.0 energy=1.0 pbc="T T T"
H        5.55400000       2.91500000       9.42700000
C        5.22700000       3.92400000       8.97700000
C        3.92700000       4.40500000       9.22700000
H        3.12500000       3.86900000       9.79400000
C        3.51400000       5.61800000       8.64700000
H        2.58400000       6.06900000       8.93400000
C        4.30900000       6.17300000       7.65000000
H        3.95500000       7.06700000       7.17000000
C        5.54200000       5.65500000       7.30100000
C        6.06000000       4.61000000       8.02200000
H        7.14100000       4.19000000       7.82400000
O        6.20000000       6.20000000       6.20000000
H        7.07800000       5.70300000       6.10900000
13
Lattice="12.8 0.0 0.0 0.0 12.8 0.0 0.0 0.0 12.8" Properties=species:S:1:pos:R:3 Time=0.0 energy=1.0 pbc="T T T"
H        5.57000000       2.92900000       9.50500000
C        5.26500000       3.85900000       9.02600000
C        3.95200000       4.33000000       9.22400000
H        3.21000000       3.79300000       9.76600000
C        3.60600000       5.53200000       8.65400000
H        2.65900000       5.97800000       9.00600000
C        4.35400000       6.11800000       7.68800000
H        4.04800000       7.02900000       7.14600000
C        5.56000000       5.61700000       7.30000000
C        6.10500000       4.54900000       8.04800000
H        7.05100000       4.22000000       7.85900000
O        6.20000000       6.20000000       6.20000000
H        7.00300000       5.65300000       5.99700000
13
Lattice="12.8 0.0 0.0 0.0 12.8 0.0 0.0 0.0 12.8" Properties=species:S:1:pos:R:3 Time=0.0 energy=1.0 pbc="T T T"
H        6.13900000       3.06800000       9.52700000
C        5.58700000       3.80900000       8.97400000
C        4.33100000       4.22500000       9.42100000
H        3.81600000       3.79600000      10.31900000
C        3.69400000       5.21300000       8.73900000
H        2.73200000       5.55000000       9.10000000
C        4.25700000       5.83300000       7.58900000
H        3.70300000       6.59600000       7.08200000
C        5.56200000       5.50100000       7.17400000
C        6.20100000       4.45400000       7.86000000
H        7.35400000       4.36400000       7.60600000
O        6.20000000       6.20000000       6.20000000
H        6.80200000       5.58200000       5.69200000
13
Lattice="12.8 0.0 0.0 0.0 12.8 0.0 0.0 0.0 12.8" Properties=species:S:1:pos:R:3 Time=0.0 energy=1.0 pbc="T T T"
H        6.71300000       3.37600000       9.78800000
C        6.07900000       4.08800000       9.24600000
C        4.72300000       4.15800000       9.56100000
H        4.26500000       3.56900000      10.33800000
C        3.90700000       4.98100000       8.82400000
H        2.89900000       5.11400000       9.16500000
C        4.45600000       5.70700000       7.76000000
H        3.82800000       6.29100000       7.05200000
C        5.78100000       5.64400000       7.41000000
C        6.64000000       4.80000000       8.13600000
H        7.77500000       4.53200000       7.89400000
O        6.20000000       6.20000000       6.20000000
H        7.17300000       6.10700000       6.13500000
13
Lattice="12.8 0.0 0.0 0.0 12.8 0.0 0.0 0.0 12.8" Properties=species:S:1:pos:R:3 Time=0.0 energy=1.0 pbc="T T T"
H        6.78400000       4.35600000      10.30800000
C        6.11700000       4.79800000       9.60800000
C        4.75100000       4.67200000       9.79300000
H        4.46800000       4.18200000      10.73800000
C        3.87700000       5.16900000       8.81300000
H        2.78200000       5.13900000       8.99600000
C        4.33600000       5.73800000       7.64300000
H        3.67100000       6.13900000       6.87400000
C        5.73800000       5.74300000       7.36800000
C        6.59500000       5.26600000       8.36700000
H        7.62800000       5.17200000       8.06700000
O        6.20000000       6.20000000       6.20000000
H        7.22100000       6.25400000       6.00400000
13
Lattice="12.8 0.0 0.0 0.0 12.8 0.0 0.0 0.0 12.8" Properties=species:S:1:pos:R:3 Time=0.0 energy=1.0 pbc="T T T"
H        6.89300000       3.01100000       9.39700000
C        6.25400000       3.75500000       8.93600000
C        4.93600000       3.69300000       9.32800000
H        4.70600000       2.97500000      10.16200000
C        3.98000000       4.50500000       8.66100000
H        2.96200000       4.49400000       8.99600000
C        4.39600000       5.38500000       7.70500000
H        3.76200000       6.07800000       7.16500000
C        5.76300000       5.42900000       7.22700000
C        6.68800000       4.67100000       7.95300000
H        7.77900000       4.75600000       7.69000000
O        6.20000000       6.20000000       6.20000000
H        7.05800000       5.89200000       5.86700000
13
Lattice="12.8 0.0 0.0 0.0 12.8 0.0 0.0 0.0 12.8" Properties=species:S:1:pos:R:3 Time=0.0 energy=1.0 pbc="T T T"
H        6.82500000       3.32000000       9.86600000
C        6.21400000       3.99000000       9.29000000
C        4.79800000       4.02600000       9.53900000
H        4.49500000       3.44500000      10.46100000
C        3.93400000       4.74900000       8.70000000
H        2.87900000       4.80200000       8.89400000
C        4.43700000       5.41600000       7.52900000
H        3.81200000       6.20000000       7.04000000
C        5.87100000       5.39000000       7.27200000
C        6.74100000       4.71700000       8.23000000
H        7.79000000       4.58600000       7.86800000
O        6.20000000       6.20000000       6.20000000
H        7.17200000       6.10700000       5.96900000
13
Lattice="12.8 0.0 0.0 0.0 12.8 0.0 0.0 0.0 12.8" Properties=species:S:1:pos:R:3 Time=0.0 energy=1.0 pbc="T T T"
H        6.89900000       3.57700000       9.82000000
C        6.15500000       4.05300000       9.23000000
C        4.79500000       4.08700000       9.58700000
H        4.49400000       3.46800000      10.46100000
C        3.92200000       4.95400000       8.74000000
H        2.87500000       4.94300000       8.87600000
C        4.51000000       5.63200000       7.68500000
H        3.74300000       6.06500000       6.99100000
C        5.84700000       5.62600000       7.41200000
C        6.73100000       4.79500000       8.13000000
H        7.82400000       4.65000000       7.92000000
O        6.20000000       6.20000000       6.20000000
H        7.17400000       6.20300000       5.99400000
13
Lattice="12.8 0.0 0.0 0.0 12.8 0.0 0.0 0.0 12.8" Properties=species:S:1:pos:R:3 Time=0.0 energy=1.0 pbc="T T T"
H        6.38900000       4.21600000      10.38300000
C        5.73900000       4.56000000       9.54400000
C        4.34300000       4.70900000       9.81200000
H        3.98400000       4.46200000      10.80500000
C        3.62500000       5.27300000       8.76800000
H        2.54600000       5.40900000       8.90700000
C        4.18300000       5.68000000       7.57500000
H        3.68400000       6.17400000       6.77200000
C        5.65000000       5.68400000       7.37200000
C        6.35000000       4.98600000       8.34400000
H        7.37300000       4.68500000       8.11200000
O        6.20000000       6.20000000       6.20000000
H        7.10800000       5.76300000       6.12200000
13
Lattice="12.8 0.0 0.0 0.0 12.8 0.0 0.0 0.0 12.8" Properties=species:S:1:pos:R:3 Time=0.0 energy=1.0 pbc="T T T"
H        6.29700000       3.78200000      10.29700000
C        5.72100000       4.27000000       9.48500000
C        4.30100000       4.22200000       9.48600000
H        3.81000000       3.49300000      10.16500000
C        3.56300000       4.85900000       8.46200000
H        2.52800000       4.55600000       8.44700000
C        4.18500000       5.62700000       7.44800000
H        3.52300000       6.23100000       6.71700000
C        5.56900000       5.61500000       7.37700000
C        6.33200000       4.99300000       8.40200000
H        7.43000000       4.97100000       8.35800000
O        6.20000000       6.20000000       6.20000000
H        7.23000000       6.05100000       6.09200000
13
Lattice="12.8 0.0 0.0 0.0 12.8 0.0 0.0 0.0 12.8" Properties=species:S:1:pos:R:3 Time=0.0 energy=1.0 pbc="T T T"
H        7.55100000       3.71400000       9.63700000
C        6.68900000       4.19900000       9.17800000
C        5.43900000       4.20300000       9.66800000
H        5.28500000       3.70900000      10.62700000
C        4.37900000       4.89200000       8.99200000
H        3.33100000       4.83700000       9.24000000
C        4.67300000       5.61000000       7.86300000
H        3.87700000       5.93800000       7.21300000
C        5.96900000       5.60200000       7.36800000
C        7.00600000       4.92300000       7.98500000
H        8.07600000       4.93500000       7.66800000
O        6.20000000       6.20000000       6.20000000
H        7.15800000       6.20100000       5.87400000
13
Lattice="12.8 0.0 0.0 0.0 12.8 0.0 0.0 0.0 12.8" Properties=species:S:1:pos:R:3 Time=0.0 energy=1.0 pbc="T T T"
H        5.78400000       3.35300000       9.82400000
C        5.39400000       4.21400000       9.24800000
C        4.04000000       4.56100000       9.53200000
H        3.47700000       4.11700000      10.39900000
C        3.38800000       5.30300000       8.50500000
H        2.34300000       5.48100000       8.51300000
C        4.16400000       5.86900000       7.43800000
H        3.74600000       6.63900000       6.80900000
C        5.54300000       5.61100000       7.29700000
C        6.15300000       4.72600000       8.18300000
H        7.12900000       4.25900000       7.91400000
O        6.20000000       6.20000000       6.20000000
H        7.16700000       5.96200000       6.28600000
13
Lattice="12.8 0.0 0.0 0.0 12.8 0.0 0.0 0.0 12.8" Properties=species:S:1:pos:R:3 Time=0.0 energy=1.0 pbc="T T T"
H        5.69500000       3.20100000       9.59300000
C        5.18600000       3.87900000       8.83500000
C        3.82000000       4.02100000       8.81800000
H        3.20500000       3.45600000       9.52900000
C        3.20300000       4.87600000       7.94100000
H        2.14600000       5.01800000       7.92300000
C        4.05100000       5.65400000       7.04900000
H        3.68800000       6.56100000       6.54800000
C        5.42400000       5.40200000       6.95800000
C        6.05800000       4.46700000       7.82800000
H        7.17300000       4.35800000       7.83300000
O        6.20000000       6.20000000       6.20000000
H        7.17700000       5.97800000       6.07800000
13
Lattice="12.8 0.0 0.0 0.0 12.8 0.0 0.0 0.0 12.8" Properties=species:S:1:pos:R:3 Time=0.0 energy=1.0 pbc="T T T"
H        6.56000000       3.14000000       9.74700000
C        5.91700000       3.91900000       9.19400000
C        4.50700000       4.08900000       9.44700000
H        4.01500000       3.57300000      10.29200000
C        3.80900000       5.00100000       8.59600000
H        2.78000000       5.11600000       8.92800000
C        4.31000000       5.72600000       7.58900000
H        3.77000000       6.49200000       7.02200000
C        5.70900000       5.50900000       7.31700000
C        6.47800000       4.64500000       8.11500000
H        7.51800000       4.51300000       7.81100000
O        6.20000000       6.20000000       6.20000000
H        7.16900000       6.29300000       6.23300000
13
Lattice="12.8 0.0 0.0 0.0 12.8 0.0 0.0 0.0 12.8" Properties=species:S:1:pos:R:3 Time=0.0 energy=1.0 pbc="T T T"
H        6.78400000       3.30600000       9.67300000
C        6.12200000       3.85400000       9.03400000
C        4.76900000       3.82600000       9.33400000
H        4.56500000       3.22700000      10.23500000
C        3.84100000       4.67800000       8.72100000
H        2.82500000       4.74500000       9.10800000
C        4.33100000       5.45800000       7.64600000
H        3.57700000       6.09300000       7.12400000
C        5.66800000       5.43200000       7.27600000
C        6.61100000       4.61100000       7.93900000
H        7.68600000       4.57400000       7.68900000
O        6.20000000       6.20000000       6.20000000
H        7.08800000       5.91300000       5.97500000
13
Lattice="12.8 0.0 0.0 0.0 12.8 0.0 0.0 0.0 12.8" Properties=species:S:1:pos:R:3 Time=0.0 energy=1.0 pbc="T T T"
H        6.58600000       3.34200000       9.61300000
C        5.98100000       3.87700000       8.99400000
C        4.61400000       3.77400000       9.22200000
H        4.23000000       3.15900000      10.06000000
C        3.74200000       4.60400000       8.45600000
H        2.65400000       4.68900000       8.57400000
C        4.34000000       5.37200000       7.43100000
H        3.74000000       6.00500000       6.73000000
C        5.69900000       5.42400000       7.19200000
C        6.59600000       4.64900000       8.00900000
H        7.70400000       4.55500000       7.84400000
O        6.20000000       6.20000000       6.20000000
H        7.12400000       5.88900000       5.95300000
13
Lattice="12.8 0.0 0.0 0.0 12.8 0.0 0.0 0.0 12.8" Properties=species:S:1:pos:R:3 Time=0.0 energy=1.0 pbc="T T T"
H        6.62600000       3.31300000       9.64400000
C        5.96200000       3.86100000       9.01500000
C        4.60500000       3.78400000       9.24400000
H        4.22000000       3.20300000      10.07600000
C        3.75100000       4.57700000       8.46800000
H        2.66800000       4.61400000       8.59800000
C        4.32000000       5.36200000       7.44400000
H        3.72800000       5.98600000       6.72600000
C        5.68600000       5.41300000       7.20600000
C        6.58000000       4.63600000       8.02600000
H        7.73800000       4.53600000       7.85900000
O        6.20000000       6.20000000       6.20000000
H        7.15100000       5.88200000       5.96000000
13
Lattice="12.8 0.0 0.0 0.0 12.8 0.0 0.0 0.0 12.8" Properties=species:S:1:pos:R:3 Time=0.0 energy=1.0 pbc="T T T"
H        7.37100000       3.66200000       9.80700000
C        6.55400000       4.19100000       9.25200000
C        5.27000000       4.24500000       9.75600000
H        5.04200000       3.70300000      10.66600000
C        4.31200000       5.06400000       9.13600000
H        3.34100000       5.22100000       9.55600000
C        4.62200000       5.75000000       7.95300000
H        3.95700000       6.39800000       7.39200000
C        5.91900000       5.62800000       7.44300000
C        6.90100000       4.92900000       8.14200000
H        8.00900000       4.95000000       7.75000000
O        6.20000000       6.20000000       6.20000000
H        7.04400000       5.72100000       5.93400000
13
Lattice="12.8 0.0 0.0 0.0 12.8 0.0 0.0 0.0 12.8" Properties=species:S:1:pos:R:3 Time=0.0 energy=1.0 pbc="T T T"
H        6.76800000       3.25900000       9.83700000
C        6.13600000       3.92100000       9.26900000
C        4.81100000       4.17800000       9.67100000
H        4.34000000       3.72700000      10.56000000
C        4.05800000       5.11800000       8.97200000
H        3.11600000       5.41400000       9.37800000
C        4.48900000       5.76500000       7.81900000
H        3.76000000       6.45400000       7.35600000
C        5.76700000       5.51300000       7.30400000
C        6.56600000       4.62100000       8.09900000
H        7.64400000       4.35700000       7.81000000
O        6.20000000       6.20000000       6.20000000
H        7.07900000       5.72700000       5.84200000
13
Lattice="12.8 0.0 0.0 0.0 12.8 0.0 0.0 0.0 12.8" Properties=species:S:1:pos:R:3 Time=0.0 energy=1.0 pbc="T T T"
H        6.40000000       3.82500000      10.14800000
C        5.78600000       4.24000000       9.32300000
C        4.38800000       4.26500000       9.37400000
H        3.86400000       3.82700000      10.26200000
C        3.59800000       4.91300000       8.40800000
H        2.54000000       5.01600000       8.54500000
C        4.21600000       5.52300000       7.33800000
H        3.67500000       6.11500000       6.60500000
C        5.60100000       5.50400000       7.24700000
C        6.40000000       4.87200000       8.20500000
H        7.53400000       4.94600000       8.14000000
O        6.20000000       6.20000000       6.20000000
H        7.11000000       5.83600000       6.08800000
13
Lattice="12.8 0.0 0.0 0.0 12.8 0.0 0.0 0.0 12.8" Properties=species:S:1:pos:R:3 Time=0.0 energy=1.0 pbc="T T T"
H        6.44000000       4.25600000      10.29700000
C        5.80500000       4.46100000       9.42900000
C        4.40900000       4.30900000       9.34900000
H        3.79600000       3.79500000      10.09700000
C        3.71100000       4.77500000       8.21800000
H        2.62400000       4.71300000       8.16800000
C        4.31700000       5.35700000       7.15300000
H        3.79700000       5.78500000       6.30200000