13
Lattice="12.8 0.0 0.0 0.0 12.8 0.0 0.0 0.0 12.8" Properties=species:S:1:pos:R:3 pbc="T T T" Time = 0.0 energy = 1.0
H  6.578000  1.765000  7.451000
C  5.858000  2.598000  7.356000
C  4.475000  2.591000  7.671000
H  3.883000  1.701000  7.873000
C  3.722000  3.806000  7.685000
H  2.690000  3.832000  8.039000
C  4.404000  5.020000  7.349000
H  3.808000  5.940000  7.311000
C  5.668000  4.978000  6.739000
C  6.453000  3.792000  6.870000
H  7.464000  3.803000  6.387000
O  6.200000  6.200000  6.200000
H  7.192000  6.233000  6.501000
13
Lattice="12.8 0.0 0.0 0.0 12.8 0.0 0.0 0.0 12.8" Properties=species:S:1:pos:R:3 pbc="T T T" Time = 0.0 energy = 1.0
H  6.559000  1.763000  7.432000
C  5.914000  2.618000  7.404000
C  4.505000  2.666000  7.713000
H  3.979000  1.692000  7.944000
C  3.754000  3.873000  7.680000
H  2.664000  3.893000  7.896000
C  4.370000  5.048000  7.262000
H  3.719000  5.999000  7.263000
C  5.731000  5.039000  6.733000
C  6.426000  3.798000  6.850000
H  7.490000  3.833000  6.508000
O  6.200000  6.200000  6.200000
H  7.226000  6.323000  6.415000
13
Lattice="12.8 0.0 0.0 0.0 12.8 0.0 0.0 0.0 12.8" Properties=species:S:1:pos:R:3 pbc="T T T" Time = 0.0 energy = 1.0
H  6.451000  1.710000  7.445000
C  5.889000  2.671000  7.414000
C  4.517000  2.694000  7.739000
H  4.072000  1.745000  8.009000
C  3.790000  3.883000  7.669000
H  2.728000  3.893000  7.842000
C  4.363000  5.069000  7.192000
H  3.774000  5.987000  7.236000
C  5.704000  5.051000  6.773000
C  6.425000  3.843000  6.831000
H  7.506000  3.810000  6.571000
O  6.200000  6.200000  6.200000
H  7.197000  6.291000  6.361000
13
Lattice="12.8 0.0 0.0 0.0 12.8 0.0 0.0 0.0 12.8" Properties=species:S:1:pos:R:3 pbc="T T T" Time = 0.0 energy = 1.0
H  6.823000  1.908000  7.708000
C  6.210000  2.739000  7.453000
C  4.871000  2.520000  7.652000
H  4.703000  1.604000  8.172000
C  4.009000  3.579000  7.495000
H  3.042000  3.432000  7.876000
C  4.449000  4.763000  6.905000
H  3.729000  5.560000  6.806000
C  5.812000  4.961000  6.647000
C  6.736000  3.943000  6.904000
H  7.845000  4.053000  6.837000
O  6.200000  6.200000  6.200000
H  7.184000  6.377000  6.333000
13
Lattice="12.8 0.0 0.0 0.0 12.8 0.0 0.0 0.0 12.8" Properties=species:S:1:pos:R:3 pbc="T T T" Time = 0.0 energy = 1.0
H  5.935000  2.407000  8.668000
C  5.436000  3.295000  8.381000
C  4.064000  3.525000  8.700000
H  3.517000  3.090000  9.505000
C  3.384000  4.633000  8.124000
H  2.357000  4.780000  8.326000
C  4.087000  5.515000  7.240000
H  3.593000  6.397000  6.844000
C  5.453000  5.261000  6.978000
C  6.078000  4.122000  7.441000
H  7.097000  3.888000  7.045000
O  6.200000  6.200000  6.200000
H  7.099000  6.266000  6.640000
13
Lattice="12.8 0.0 0.0 0.0 12.8 0.0 0.0 0.0 12.8" Properties=species:S:1:pos:R:3 pbc="T T T" Time = 0.0 energy = 1.0
H  6.309000  3.990000  10.218000
C  5.832000  4.721000  9.621000
C  4.636000  5.297000  10.029000
H  4.345000  5.136000  11.092000
C  4.016000  6.239000  9.215000
H  3.042000  6.738000  9.450000
C  4.495000  6.526000  7.924000
H  4.054000  7.275000  7.242000
C  5.682000  5.927000  7.487000
C  6.332000  5.015000  8.340000
H  7.259000  4.589000  7.989000
O  6.200000  6.200000  6.200000
H  7.124000  5.805000  6.108000
13
Lattice="12.8 0.0 0.0 0.0 12.8 0.0 0.0 0.0 12.8" Properties=species:S:1:pos:R:3 pbc="T T T" Time = 0.0 energy = 1.0
H  6.372000  3.479000  9.939000
C  5.828000  4.240000  9.313000
C  4.729000  4.870000  9.916000
H  4.270000  4.685000  10.863000
C  3.995000  5.772000  9.082000
H  3.157000  6.251000  9.572000
C  4.455000  6.232000  7.846000
H  3.842000  6.974000  7.313000
C  5.663000  5.740000  7.359000
C  6.276000  4.725000  8.070000
H  7.155000  4.213000  7.669000
O  6.200000  6.200000  6.200000
H  7.060000  5.714000  6.092000
13
Lattice="12.8 0.0 0.0 0.0 12.8 0.0 0.0 0.0 12.8" Properties=species:S:1:pos:R:3 pbc="T T T" Time = 0.0 energy = 1.0
H  5.835000  3.351000  9.698000
C  5.348000  4.084000  9.029000
C  4.007000  4.423000  9.305000
H  3.431000  4.045000  10.182000
C  3.399000  5.386000  8.443000
H  2.383000  5.622000  8.619000
C  4.122000  5.893000  7.364000
H  3.679000  6.601000  6.652000
C  5.495000  5.533000  7.114000
C  6.116000  4.595000  7.975000
H  7.189000  4.263000  7.812000
O  6.200000  6.200000  6.200000
H  7.020000  5.760000  5.919000
13
Lattice="12.8 0.0 0.0 0.0 12.8 0.0 0.0 0.0 12.8" Properties=species:S:1:pos:R:3 pbc="T T T" Time = 0.0 energy = 1.0
H  5.789000  4.433000  10.372000
C  5.406000  5.246000  9.695000
C  4.432000  6.153000  9.981000
H  4.060000  6.343000  11.042000
C  4.193000  7.223000  9.097000
H  3.550000  8.081000  9.278000
C  4.742000  7.290000  7.845000
H  4.724000  8.158000  7.224000
C  5.644000  6.264000  7.434000
C  5.981000  5.269000  8.399000
H  6.788000  4.571000  8.092000
O  6.200000  6.200000  6.200000
H  7.139000  5.881000  6.222000
13
Lattice="12.8 0.0 0.0 0.0 12.8 0.0 0.0 0.0 12.8" Properties=species:S:1:pos:R:3 pbc="T T T" Time = 0.0 energy = 1.0
H  6.167000  3.972000  10.242000
C  5.668000  4.675000  9.569000
C  4.458000  5.303000  9.996000
H  3.920000  5.040000  10.920000
C  3.831000  6.165000  9.100000
H  2.875000  6.657000  9.400000
C  4.375000  6.494000  7.814000
H  3.925000  7.086000  7.062000
C  5.638000  5.952000  7.531000
C  6.229000  5.023000  8.339000
H  7.058000  4.434000  8.005000
O  6.200000  6.200000  6.200000
H  7.152000  5.773000  6.065000
13
Lattice="12.8 0.0 0.0 0.0 12.8 0.0 0.0 0.0 12.8" Properties=species:S:1:pos:R:3 pbc="T T T" Time = 0.0 energy = 1.0
H  6.004000  3.943000  10.273000
C  5.526000  4.614000  9.555000
C  4.350000  5.271000  9.872000
H  3.980000  5.116000  10.867000
C  3.907000  6.287000  9.007000
H  3.054000  6.944000  9.179000
C  4.436000  6.513000  7.756000
H  3.891000  7.227000  7.094000
C  5.626000  5.773000  7.362000
C  6.082000  4.747000  8.250000
H  6.969000  4.172000  7.971000
O  6.200000  6.200000  6.200000
H  7.097000  5.769000  6.180000
13
Lattice="12.8 0.0 0.0 0.0 12.8 0.0 0.0 0.0 12.8" Properties=species:S:1:pos:R:3 pbc="T T T" Time = 0.0 energy = 1.0
H  5.752000  3.433000  9.917000
C  5.439000  4.382000  9.366000
C  4.358000  5.273000  9.892000
H  4.045000  5.243000  10.875000
C  3.937000  6.293000  9.074000
H  3.007000  6.862000  9.470000
C  4.534000  6.621000  7.845000
H  4.159000  7.501000  7.272000
C  5.653000  5.911000  7.414000
C  5.987000  4.747000  8.138000
H  6.881000  4.258000  7.723000
O  6.200000  6.200000  6.200000
H  7.085000  5.764000  6.056000
13
Lattice="12.8 0.0 0.0 0.0 12.8 0.0 0.0 0.0 12.8" Properties=species:S:1:pos:R:3 pbc="T T T" Time = 0.0 energy = 1.0
H  5.057000  2.830000  9.007000
C  4.954000  3.901000  8.773000
C  4.011000  4.727000  9.407000
H  3.541000  4.376000  10.300000
C  3.657000  5.995000  8.794000
H  2.910000  6.576000  9.306000
C  4.289000  6.400000  7.641000
H  4.233000  7.321000  7.155000
C  5.393000  5.602000  7.122000
C  5.629000  4.310000  7.639000
H  6.465000  3.744000  7.263000
O  6.200000  6.200000  6.200000
H  6.936000  5.588000  5.756000
13
Lattice="12.8 0.0 0.0 0.0 12.8 0.0 0.0 0.0 12.8" Properties=species:S:1:pos:R:3 pbc="T T T" Time = 0.0 energy = 1.0
H  6.184000  3.743000  10.175000
C  5.772000  4.411000  9.453000
C  4.474000  4.990000  9.715000
H  3.967000  4.573000  10.604000
C  3.927000  5.996000  8.959000
H  3.007000  6.438000  9.243000
C  4.584000  6.483000  7.828000
H  4.166000  7.370000  7.230000
C  5.704000  5.815000  7.336000
C  6.328000  4.845000  8.210000
H  7.320000  4.524000  7.827000
O  6.200000  6.200000  6.200000
H  7.095000  5.728000  5.989000
13
Lattice="12.8 0.0 0.0 0.0 12.8 0.0 0.0 0.0 12.8" Properties=species:S:1:pos:R:3 pbc="T T T" Time = 0.0 energy = 1.0
H  6.538000  3.544000  10.017000
C  5.979000  4.306000  9.384000
C  4.724000  4.717000  9.876000
H  4.315000  4.473000  10.821000
C  3.952000  5.525000  8.994000
H  2.924000  5.744000  9.349000
C  4.433000  6.027000  7.767000
H  3.710000  6.668000  7.241000
C  5.685000  5.658000  7.381000
C  6.431000  4.751000  8.137000
H  7.313000  4.309000  7.749000
O  6.200000  6.200000  6.200000
H  7.110000  5.858000  5.824000
13
Lattice="12.8 0.0 0.0 0.0 12.8 0.0 0.0 0.0 12.8" Properties=species:S:1:pos:R:3 pbc="T T T" Time = 0.0 energy = 1.0
H  5.650000  2.827000  9.299000
C  5.229000  3.834000  8.850000
C  3.980000  4.317000  9.222000
H  3.482000  3.962000  10.050000
C  3.450000  5.436000  8.504000
H  2.432000  5.779000  8.771000
C  4.226000  6.107000  7.510000
H  3.865000  6.985000  6.975000
C  5.455000  5.547000  7.190000
C  6.005000  4.446000  7.852000
H  6.867000  3.915000  7.564000
O  6.200000  6.200000  6.200000
H  7.167000  5.960000  6.261000
13
Lattice="12.8 0.0 0.0 0.0 12.8 0.0 0.0 0.0 12.8" Properties=species:S:1:pos:R:3 pbc="T T T" Time = 0.0 energy = 1.0
H  5.554000  2.915000  9.427000
C  5.227000  3.924000  8.977000
C  3.927000  4.405000  9.227000
H  3.125000  3.869000  9.794000
C  3.514000  5.618000  8.647000
H  2.584000  6.069000  8.934000
C  4.309000  6.173000  7.650000
H  3.955000  7.067000  7.170000
C  5.542000  5.655000  7.301000
C  6.060000  4.610000  8.022000
H  7.141000  4.190000  7.824000
O  6.200000  6.200000  6.200000
H  7.078000  5.703000  6.109000
13
Lattice="12.8 0.0 0.0 0.0 12.8 0.0 0.0 0.0 12.8" Properties=species:S:1:pos:R:3 pbc="T T T" Time = 0.0 energy = 1.0
H  5.570000  2.929000  9.505000
C  5.265000  3.859000  9.026000
C  3.952000  4.330000  9.224000
H  3.210000  3.793000  9.766000
C  3.606000  5.532000  8.654000
H  2.659000  5.978000  9.006000
C  4.354000  6.118000  7.688000
H  4.048000  7.029000  7.146000
C  5.560000  5.617000  7.300000
C  6.105000  4.549000  8.048000
H  7.051000  4.220000  7.859000
O  6.200000  6.200000  6.200000
H  7.003000  5.653000  5.997000
13
Lattice="12.8 0.0 0.0 0.0 12.8 0.0 0.0 0.0 12.8" Properties=species:S:1:pos:R:3 pbc="T T T" Time = 0.0 energy = 1.0
H  6.139000  3.068000  9.527000
C  5.587000  3.809000  8.974000
C  4.331000  4.225000  9.421000
H  3.816000  3.796000  10.319000
C  3.694000  5.213000  8.739000
H  2.732000  5.550000  9.100000
C  4.257000  5.833000  7.589000
H  3.703000  6.596000  7.082000
C  5.562000  5.501000  7.174000
C  6.201000  4.454000  7.860000
H  7.354000  4.364000  7.606000
O  6.200000  6.200000  6.200000
H  6.802000  5.582000  5.692000
13
Lattice="12.8 0.0 0.0 0.0 12.8 0.0 0.0 0.0 12.8" Properties=species:S:1:pos:R:3 pbc="T T T" Time = 0.0 energy = 1.0
H  6.713000  3.376000  9.788000
C  6.079000  4.088000  9.246000
C  4.723000  4.158000  9.561000
H  4.265000  3.569000  10.338000
C  3.907000  4.981000  8.824000
H  2.899000  5.114000  9.165000
C  4.456000  5.707000  7.760000
H  3.828000  6.291000  7.052000
C  5.781000  5.644000  7.410000
C  6.640000  4.800000  8.136000
H  7.775000  4.532000  7.894000
O  6.200000  6.200000  6.200000
H  7.173000  6.107000  6.135000
13
Lattice="12.8 0.0 0.0 0.0 12.8 0.0 0.0 0.0 12.8" Properties=species:S:1:pos:R:3 pbc="T T T" Time = 0.0 energy = 1.0
H  6.784000  4.356000  10.308000
C  6.117000  4.798000  9.608000
C  4.751000  4.672000  9.793000
H  4.468000  4.182000  10.738000
C  3.877000  5.169000  8.813000
H  2.782000  5.139000  8.996000
C  4.336000  5.738000  7.643000
H  3.671000  6.139000  6.874000
C  5.738000  5.743000  7.368000
C  6.595000  5.266000  8.367000
H  7.628000  5.172000  8.067000
O  6.200000  6.200000  6.200000
H  7.221000  6.254000  6.004000
13
Lattice="12.8 0.0 0.0 0.0 12.8 0.0 0.0 0.0 12.8" Properties=species:S:1:pos:R:3 pbc="T T T" Time = 0.0 energy = 1.0
H  6.893000  3.011000  9.397000
C  6.254000  3.755000  8.936000
C  4.936000  3.693000  9.328000
H  4.706000  2.975000  10.162000
C  3.980000  4.505000  8.661000
H  2.962000  4.494000  8.996000
C  4.396000  5.385000  7.705000
H  3.762000  6.078000  7.165000
C  5.763000  5.429000  7.227000
C  6.688000  4.671000  7.953000
H  7.779000  4.756000  7.690000
O  6.200000  6.200000  6.200000
H  7.058000  5.892000  5.867000
13
Lattice="12.8 0.0 0.0 0.0 12.8 0.0 0.0 0.0 12.8" Properties=species:S:1:pos:R:3 pbc="T T T" Time = 0.0 energy = 1.0
H  6.825000  3.320000  9.866000
C  6.214000  3.990000  9.290000
C  4.798000  4.026000  9.539000
H  4.495000  3.445000  10.461000
C  3.934000  4.749000  8.700000
H  2.879000  4.802000  8.894000
C  4.437000  5.416000  7.529000
H  3.812000  6.200000  7.040000
C  5.871000  5.390000  7.272000
C  6.741000  4.717000  8.230000
H  7.790000  4.586000  7.868000
O  6.200000  6.200000  6.200000
H  7.172000  6.107000  5.969000
13
Lattice="12.8 0.0 0.0 0.0 12.8 0.0 0.0 0.0 12.8" Properties=species:S:1:pos:R:3 pbc="T T T" Time = 0.0 energy = 1.0
H  6.899000  3.577000  9.820000
C  6.155000  4.053000  9.230000
C  4.795000  4.087000  9.587000
H  4.494000  3.468000  10.461000
C  3.922000  4.954000  8.740000
H  2.875000  4.943000  8.876000
C  4.510000  5.632000  7.685000
H  3.743000  6.065000  6.991000
C  5.847000  5.626000  7.412000
C  6.731000  4.795000  8.130000
H  7.824000  4.650000  7.920000
O  6.200000  6.200000  6.200000
H  7.174000  6.203000  5.994000
13
Lattice="12.8 0.0 0.0 0.0 12.8 0.0 0.0 0.0 12.8" Properties=species:S:1:pos:R:3 pbc="T T T" Time = 0.0 energy = 1.0
H  6.389000  4.216000  10.383000
C  5.739000  4.560000  9.544000
C  4.343000  4.709000  9.812000
H  3.984000  4.462000  10.805000
C  3.625000  5.273000  8.768000
H  2.546000  5.409000  8.907000
C  4.183000  5.680000  7.575000
H  3.684000  6.174000  6.772000
C  5.650000  5.684000  7.372000
C  6.350000  4.986000  8.344000
H  7.373000  4.685000  8.112000
O  6.200000  6.200000  6.200000
H  7.108000  5.763000  6.122000
13
Lattice="12.8 0.0 0.0 0.0 12.8 0.0 0.0 0.0 12.8" Properties=species:S:1:pos:R:3 pbc="T T T" Time = 0.0 energy = 1.0
H  6.297000  3.782000  10.297000
C  5.721000  4.270000  9.485000
C  4.301000  4.222000  9.486000
H  3.810000  3.493000  10.165000
C  3.563000  4.859000  8.462000
H  2.528000  4.556000  8.447000
C  4.185000  5.627000  7.448000
H  3.523000  6.231000  6.717000
C  5.569000  5.615000  7.377000
C  6.332000  4.993000  8.402000
H  7.430000  4.971000  8.358000
O  6.200000  6.200000  6.200000
H  7.230000  6.051000  6.092000
13
Lattice="12.8 0.0 0.0 0.0 12.8 0.0 0.0 0.0 12.8" Properties=species:S:1:pos:R:3 pbc="T T T" Time = 0.0 energy = 1.0
H  7.551000  3.714000  9.637000
C  6.689000  4.199000  9.178000
C  5.439000  4.203000  9.668000
H  5.285000  3.709000  10.627000
C  4.379000  4.892000  8.992000
H  3.331000  4.837000  9.240000
C  4.673000  5.610000  7.863000
H  3.877000  5.938000  7.213000
C  5.969000  5.602000  7.368000
C  7.006000  4.923000  7.985000
H  8.076000  4.935000  7.668000
O  6.200000  6.200000  6.200000
H  7.158000  6.201000  5.874000
13
Lattice="12.8 0.0 0.0 0.0 12.8 0.0 0.0 0.0 12.8" Properties=species:S:1:pos:R:3 pbc="T T T" Time = 0.0 energy = 1.0
H  5.784000  3.353000  9.824000
C  5.394000  4.214000  9.248000
C  4.040000  4.561000  9.532000
H  3.477000  4.117000  10.399000
C  3.388000  5.303000  8.505000
H  2.343000  5.481000  8.513000
C  4.164000  5.869000  7.438000
H  3.746000  6.639000  6.809000
C  5.543000  5.611000  7.297000
C  6.153000  4.726000  8.183000
H  7.129000  4.259000  7.914000
O  6.200000  6.200000  6.200000
H  7.167000  5.962000  6.286000
13
Lattice="12.8 0.0 0.0 0.0 12.8 0.0 0.0 0.0 12.8" Properties=species:S:1:pos:R:3 pbc="T T T" Time = 0.0 energy = 1.0
H  5.695000  3.201000  9.593000
C  5.186000  3.879000  8.835000
C  3.820000  4.021000  8.818000
H  3.205000  3.456000  9.529000
C  3.203000  4.876000  7.941000
H  2.146000  5.018000  7.923000
C  4.051000  5.654000  7.049000
H  3.688000  6.561000  6.548000
C  5.424000  5.402000  6.958000
C  6.058000  4.467000  7.828000
H  7.173000  4.358000  7.833000
O  6.200000  6.200000  6.200000
H  7.177000  5.978000  6.078000
13
Lattice="12.8 0.0 0.0 0.0 12.8 0.0 0.0 0.0 12.8" Properties=species:S:1:pos:R:3 pbc="T T T" Time = 0.0 energy = 1.0
H  6.560000  3.140000  9.747000
C  5.917000  3.919000  9.194000
C  4.507000  4.089000  9.447000
H  4.015000  3.573000  10.292000
C  3.809000  5.001000  8.596000
H  2.780000  5.116000  8.928000
C  4.310000  5.726000  7.589000
H  3.770000  6.492000  7.022000
C  5.709000  5.509000  7.317000
C  6.478000  4.645000  8.115000
H  7.518000  4.513000  7.811000
O  6.200000  6.200000  6.200000
H  7.169000  6.293000  6.233000
13
Lattice="12.8 0.0 0.0 0.0 12.8 0.0 0.0 0.0 12.8" Properties=species:S:1:pos:R:3 pbc="T T T" Time = 0.0 energy = 1.0
H  6.784000  3.306000  9.673000
C  6.122000  3.854000  9.034000
C  4.769000  3.826000  9.334000
H  4.565000  3.227000  10.235000
C  3.841000  4.678000  8.721000
H  2.825000  4.745000  9.108000
C  4.331000  5.458000  7.646000
H  3.577000  6.093000  7.124000
C  5.668000  5.432000  7.276000
C  6.611000  4.611000  7.939000
H  7.686000  4.574000  7.689000
O  6.200000  6.200000  6.200000
H  7.088000  5.913000  5.975000
13
Lattice="12.8 0.0 0.0 0.0 12.8 0.0 0.0 0.0 12.8" Properties=species:S:1:pos:R:3 pbc="T T T" Time = 0.0 energy = 1.0
H  6.586000  3.342000  9.613000
C  5.981000  3.877000  8.994000
C  4.614000  3.774000  9.222000
H  4.230000  3.159000  10.060000
C  3.742000  4.604000  8.456000
H  2.654000  4.689000  8.574000
C  4.340000  5.372000  7.431000
H  3.740000  6.005000  6.730000
C  5.699000  5.424000  7.192000
C  6.596000  4.649000  8.009000
H  7.704000  4.555000  7.844000
O  6.200000  6.200000  6.200000
H  7.124000  5.889000  5.953000
13
Lattice="12.8 0.0 0.0 0.0 12.8 0.0 0.0 0.0 12.8" Properties=species:S:1:pos:R:3 pbc="T T T" Time = 0.0 energy = 1.0
H  6.626000  3.313000  9.644000
C  5.962000  3.861000  9.015000
C  4.605000  3.784000  9.244000
H  4.220000  3.203000  10.076000
C  3.751000  4.577000  8.468000
H  2.668000  4.614000  8.598000
C  4.320000  5.362000  7.444000
H  3.728000  5.986000  6.726000
C  5.686000  5.413000  7.206000
C  6.580000  4.636000  8.026000
H  7.738000  4.536000  7.859000
O  6.200000  6.200000  6.200000
H  7.151000  5.882000  5.960000
13
Lattice="12.8 0.0 0.0 0.0 12.8 0.0 0.0 0.0 12.8" Properties=species:S:1:pos:R:3 pbc="T T T" Time = 0.0 energy = 1.0
H  7.371000  3.662000  9.807000
C  6.554000  4.191000  9.252000
C  5.270000  4.245000  9.756000
H  5.042000  3.703000  10.666000
C  4.312000  5.064000  9.136000
H  3.341000  5.221000  9.556000
C  4.622000  5.750000  7.953000
H  3.957000  6.398000  7.392000
C  5.919000  5.628000  7.443000
C  6.901000  4.929000  8.142000
H  8.009000  4.950000  7.750000
O  6.200000  6.200000  6.200000
H  7.044000  5.721000  5.934000
13
Lattice="12.8 0.0 0.0 0.0 12.8 0.0 0.0 0.0 12.8" Properties=species:S:1:pos:R:3 pbc="T T T" Time = 0.0 energy = 1.0
H  6.768000  3.259000  9.837000
C  6.136000  3.921000  9.269000
C  4.811000  4.178000  9.671000
H  4.340000  3.727000  10.560000
C  4.058000  5.118000  8.972000
H  3.116000  5.414000  9.378000
C  4.489000  5.765000  7.819000
H  3.760000  6.454000  7.356000
C  5.767000  5.513000  7.304000
C  6.566000  4.621000  8.099000
H  7.644000  4.357000  7.810000
O  6.200000  6.200000  6.200000
H  7.079000  5.727000  5.842000
13
Lattice="12.8 0.0 0.0 0.0 12.8 0.0 0.0 0.0 12.8" Properties=species:S:1:pos:R:3 pbc="T T T" Time = 0.0 energy = 1.0
H  6.400000  3.825000  10.148000
C  5.786000  4.240000  9.323000
C  4.388000  4.265000  9.374000
H  3.864000  3.827000  10.262000
C  3.598000  4.913000  8.408000
H  2.540000  5.016000  8.545000
C  4.216000  5.523000  7.338000
H  3.675000  6.115000  6.605000
C  5.601000  5.504000  7.247000
C  6.400000  4.872000  8.205000
H  7.534000  4.946000  8.140000
O  6.200000  6.200000  6.200000
H  7.110000  5.836000  6.088000
13
Lattice="12.8 0.0 0.0 0.0 12.8 0.0 0.0 0.0 12.8" Properties=species:S:1:pos:R:3 pbc="T T T" Time = 0.0 energy = 1.0
H  6.440000  4.256000  10.297000
C  5.805000  4.461000  9.429000
C  4.409000  4.309000  9.349000
H  3.796000  3.795000  10.097000
C  3.711000  4.775000  8.218000
H  2.624000  4.713000  8.168000
C  4.317000  5.357000  7.153000
H  3.797000  5.785000  6.302000
C  5.727000  5.483000  7.203000
C  6.435000  5.056000  8.314000
H  7.621000  5.147000  8.248000
O  6.200000  6.200000  6.200000
H  7.179000  6.098000  6.030000
13
Lattice="12.8 0.0 0.0 0.0 12.8 0.0 0.0 0.0 12.8" Properties=species:S:1:pos:R:3 pbc="T T T" Time = 0.0 energy = 1.0
H  7.721000  2.603000  8.576000
C  6.848000  3.289000  8.446000
C  5.555000  3.176000  8.931000
H  5.183000  2.419000  9.624000
C  4.576000  4.112000  8.619000
H  3.573000  4.039000  8.942000
C  4.788000  5.142000  7.747000
H  4.053000  5.879000  7.454000
C  6.056000  5.256000  7.161000
C  7.096000  4.356000  7.567000
H  8.036000  4.486000  7.209000
O  6.200000  6.200000  6.200000
H  6.978000  5.921000  5.627000
13
Lattice="12.8 0.0 0.0 0.0 12.8 0.0 0.0 0.0 12.8" Properties=species:S:1:pos:R:3 pbc="T T T" Time = 0.0 energy = 1.0
H  6.596000  3.502000  9.996000
C  6.008000  4.278000  9.405000
C  4.667000  4.451000  9.776000
H  4.110000  3.878000  10.528000
C  3.914000  5.351000  8.967000
H  2.847000  5.395000  9.138000
C  4.453000  5.884000  7.781000
H  3.840000  6.484000  7.110000
C  5.799000  5.617000  7.403000
C  6.634000  4.909000  8.296000
H  7.639000  4.700000  8.182000
O  6.200000  6.200000  6.200000
H  7.091000  5.821000  5.896000
13
Lattice="12.8 0.0 0.0 0.0 12.8 0.0 0.0 0.0 12.8" Properties=species:S:1:pos:R:3 pbc="T T T" Time = 0.0 energy = 1.0
H  6.674000  3.765000  10.145000
C  6.038000  4.364000  9.471000
C  4.691000  4.574000  9.721000
H  4.216000  4.176000  10.650000
C  3.978000  5.418000  8.896000
H  2.976000  5.559000  9.108000
C  4.472000  5.917000  7.711000
H  3.867000  6.447000  7.000000
C  5.787000  5.662000  7.351000
C  6.604000  4.943000  8.309000
H  7.640000  4.867000  8.056000
O  6.200000  6.200000  6.200000
H  7.090000  5.884000  5.960000
13
Lattice="12.8 0.0 0.0 0.0 12.8 0.0 0.0 0.0 12.8" Properties=species:S:1:pos:R:3 pbc="T T T" Time = 0.0 energy = 1.0
H  6.977000  4.080000  10.168000
C  6.274000  4.508000  9.478000
C  4.890000  4.375000  9.626000
H  4.562000  3.882000  10.526000
C  3.971000  4.962000  8.758000
H  2.890000  4.854000  8.946000
C  4.406000  5.559000  7.594000
H  3.768000  5.865000  6.810000
C  5.798000  5.715000  7.394000
C  6.681000  5.117000  8.325000
H  7.781000  5.246000  7.976000
O  6.200000  6.200000  6.200000
H  7.187000  5.961000  6.071000
13
Lattice="12.8 0.0 0.0 0.0 12.8 0.0 0.0 0.0 12.8" Properties=species:S:1:pos:R:3 pbc="T T T" Time = 0.0 energy = 1.0
H  6.990000  3.638000  9.912000
C  6.188000  4.181000  9.321000
C  4.755000  3.929000  9.557000
H  4.437000  3.072000  10.151000
C  3.931000  4.686000  8.710000
H  2.834000  4.526000  8.860000
C  4.382000  5.447000  7.619000
H  3.745000  5.927000  6.933000
C  5.796000  5.577000  7.395000
C  6.677000  5.019000  8.343000
H  7.705000  5.180000  8.245000
O  6.200000  6.200000  6.200000
H  7.131000  5.891000  5.965000
13
Lattice="12.8 0.0 0.0 0.0 12.8 0.0 0.0 0.0 12.8" Properties=species:S:1:pos:R:3 pbc="T T T" Time = 0.0 energy = 1.0
H  6.777000  3.461000  9.757000
C  6.062000  3.819000  8.999000
C  4.688000  3.541000  9.150000
H  4.302000  2.932000  9.949000
C  3.815000  4.224000  8.215000
H  2.695000  4.279000  8.316000
C  4.329000  5.188000  7.270000
H  3.612000  5.746000  6.691000
C  5.719000  5.299000  7.108000
C  6.567000  4.640000  8.016000
H  7.615000  4.600000  7.863000
O  6.200000  6.200000  6.200000
H  7.161000  5.997000  5.828000
13
Lattice="12.8 0.0 0.0 0.0 12.8 0.0 0.0 0.0 12.8" Properties=species:S:1:pos:R:3 pbc="T T T" Time = 0.0 energy = 1.0
H  6.783000  3.485000  9.809000
C  6.071000  3.809000  9.000000
C  4.681000  3.511000  9.159000
H  4.279000  2.885000  9.977000
C  3.832000  4.198000  8.229000
H  2.735000  4.267000  8.329000
C  4.329000  5.182000  7.290000
H  3.619000  5.766000  6.633000
C  5.698000  5.304000  7.093000
C  6.567000  4.615000  8.021000
H  7.644000  4.572000  7.888000
O  6.200000  6.200000  6.200000
H  7.160000  5.946000  5.802000
13
Lattice="12.8 0.0 0.0 0.0 12.8 0.0 0.0 0.0 12.8" Properties=species:S:1:pos:R:3 pbc="T T T" Time = 0.0 energy = 1.0
H  6.974000  3.159000  9.583000
C  6.219000  3.734000  8.962000
C  4.828000  3.638000  9.096000
H  4.465000  3.061000  9.951000
C  3.960000  4.328000  8.349000
H  2.878000  4.128000  8.569000
C  4.445000  5.139000  7.312000
H  3.747000  5.603000  6.592000
C  5.795000  5.399000  7.190000
C  6.701000  4.691000  8.019000
H  7.741000  4.928000  7.891000
O  6.200000  6.200000  6.200000
H  7.168000  6.073000  5.827000
13
Lattice="12.8 0.0 0.0 0.0 12.8 0.0 0.0 0.0 12.8" Properties=species:S:1:pos:R:3 pbc="T T T" Time = 0.0 energy = 1.0
H  6.927000  3.298000  9.690000
C  6.257000  3.957000  9.182000
C  4.884000  3.745000  9.472000
H  4.533000  3.113000  10.304000
C  3.926000  4.449000  8.677000
H  2.855000  4.432000  8.832000
C  4.362000  5.113000  7.481000
H  3.512000  5.612000  6.937000
C  5.785000  5.381000  7.247000
C  6.715000  4.775000  8.139000
H  7.825000  4.943000  7.985000
O  6.200000  6.200000  6.200000
H  7.128000  5.955000  5.924000
13
Lattice="12.8 0.0 0.0 0.0 12.8 0.0 0.0 0.0 12.8" Properties=species:S:1:pos:R:3 pbc="T T T" Time = 0.0 energy = 1.0
H  6.409000  3.481000  9.857000
C  5.803000  4.129000  9.237000
C  4.456000  4.322000  9.535000
H  3.991000  3.869000  10.367000
C  3.641000  5.078000  8.637000
H  2.605000  5.026000  8.984000
C  4.221000  5.616000  7.455000
H  3.644000  6.264000  6.774000
C  5.628000  5.521000  7.218000
C  6.455000  4.729000  8.128000
H  7.523000  4.591000  7.911000
O  6.200000  6.200000  6.200000
H  7.200000  5.969000  6.109000
13
Lattice="12.8 0.0 0.0 0.0 12.8 0.0 0.0 0.0 12.8" Properties=species:S:1:pos:R:3 pbc="T T T" Time = 0.0 energy = 1.0
H  6.597000  3.545000  9.870000
C  5.954000  4.205000  9.325000
C  4.605000  4.374000  9.618000
H  4.215000  3.759000  10.467000
C  3.816000  5.211000  8.851000
H  2.746000  5.437000  9.075000
C  4.359000  5.815000  7.690000
H  3.765000  6.434000  7.004000
C  5.662000  5.501000  7.292000
C  6.481000  4.821000  8.205000
H  7.522000  4.711000  8.037000
O  6.200000  6.200000  6.200000
H  6.971000  5.614000  5.926000
13
Lattice="12.8 0.0 0.0 0.0 12.8 0.0 0.0 0.0 12.8" Properties=species:S:1:pos:R:3 pbc="T T T" Time = 0.0 energy = 1.0
H  6.552000  4.008000  10.271000
C  5.993000  4.607000  9.565000
C  4.548000  4.779000  9.799000
H  4.152000  4.324000  10.723000
C  3.797000  5.419000  8.896000
H  2.719000  5.354000  8.951000
C  4.377000  5.794000  7.645000
H  3.639000  6.198000  6.893000
C  5.752000  5.649000  7.371000
C  6.644000  5.145000  8.414000
H  7.720000  5.101000  8.310000
O  6.200000  6.200000  6.200000
H  7.077000  5.820000  5.874000
13
Lattice="12.8 0.0 0.0 0.0 12.8 0.0 0.0 0.0 12.8" Properties=species:S:1:pos:R:3 pbc="T T T" Time = 0.0 energy = 1.0
H  6.968000  4.743000  10.523000
C  6.255000  5.065000  9.730000
C  4.886000  5.057000  10.072000
H  4.513000  4.752000  11.054000
C  3.962000  5.355000  9.017000
H  2.871000  5.367000  9.062000
C  4.407000  5.732000  7.760000
H  3.705000  6.068000  7.014000
C  5.821000  5.677000  7.422000
C  6.693000  5.236000  8.374000
H  7.809000  5.132000  8.230000
O  6.200000  6.200000  6.200000
H  7.084000  5.805000  5.881000
13
Lattice="12.8 0.0 0.0 0.0 12.8 0.0 0.0 0.0 12.8" Properties=species:S:1:pos:R:3 pbc="T T T" Time = 0.0 energy = 1.0
H  7.206000  3.126000  9.340000
C  6.602000  4.015000  9.015000
C  5.598000  4.494000  9.864000
H  5.430000  4.009000  10.835000
C  4.789000  5.525000  9.465000
H  4.091000  6.122000  10.107000
C  5.001000  6.070000  8.194000
H  4.314000  6.867000  7.837000
C  6.129000  5.675000  7.444000
C  6.891000  4.638000  7.829000
H  7.570000  4.262000  7.117000
O  6.200000  6.200000  6.200000
H  7.002000  5.693000  5.661000
13
Lattice="12.8 0.0 0.0 0.0 12.8 0.0 0.0 0.0 12.8" Properties=species:S:1:pos:R:3 pbc="T T T" Time = 0.0 energy = 1.0
H  6.799000  3.064000  9.378000
C  6.252000  3.940000  9.162000
C  5.253000  4.490000  9.973000
H  4.760000  4.026000  10.832000
C  4.666000  5.678000  9.507000
H  3.835000  6.141000  9.997000
C  4.939000  6.237000  8.223000
H  4.475000  7.185000  7.965000
C  5.962000  5.681000  7.444000
C  6.663000  4.554000  7.964000
H  7.523000  4.171000  7.382000
O  6.200000  6.200000  6.200000
H  6.954000  5.671000  5.798000
13
Lattice="12.8 0.0 0.0 0.0 12.8 0.0 0.0 0.0 12.8" Properties=species:S:1:pos:R:3 pbc="T T T" Time = 0.0 energy = 1.0
H  7.220000  3.278000  9.564000
C  6.381000  3.832000  9.084000
C  5.093000  3.859000  9.542000
H  4.827000  3.377000  10.498000
C  4.176000  4.666000  8.822000
H  3.115000  4.775000  9.205000
C  4.529000  5.383000  7.675000
H  3.860000  6.108000  7.162000
C  5.822000  5.470000  7.329000
C  6.750000  4.585000  8.017000
H  7.760000  4.485000  7.615000
O  6.200000  6.200000  6.200000
H  7.089000  5.732000  5.843000
13
Lattice="12.8 0.0 0.0 0.0 12.8 0.0 0.0 0.0 12.8" Properties=species:S:1:pos:R:3 pbc="T T T" Time = 0.0 energy = 1.0
H  7.023000  3.722000  10.045000
C  6.336000  4.275000  9.415000
C  5.030000  4.417000  9.802000
H  4.768000  4.037000  10.814000
C  4.127000  5.175000  9.034000
H  3.094000  5.260000  9.449000
C  4.573000  5.757000  7.853000
H  3.803000  6.163000  7.174000
C  5.868000  5.609000  7.330000
C  6.797000  4.848000  8.179000
H  7.805000  4.767000  7.832000
O  6.200000  6.200000  6.200000
H  7.193000  5.825000  5.837000
13
Lattice="12.8 0.0 0.0 0.0 12.8 0.0 0.0 0.0 12.8" Properties=species:S:1:pos:R:3 pbc="T T T" Time = 0.0 energy = 1.0
H  7.055000  3.816000  9.903000
C  6.338000  4.429000  9.350000
C  5.058000  4.688000  9.835000
H  4.646000  4.205000  10.687000
C  4.108000  5.392000  9.015000
H  3.069000  5.471000  9.271000
C  4.496000  5.862000  7.790000
H  3.935000  6.563000  7.207000
C  5.841000  5.673000  7.350000
C  6.809000  4.917000  8.107000
H  7.880000  4.773000  7.730000
O  6.200000  6.200000  6.200000
H  7.108000  5.875000  5.843000
13
Lattice="12.8 0.0 0.0 0.0 12.8 0.0 0.0 0.0 12.8" Properties=species:S:1:pos:R:3 pbc="T T T" Time = 0.0 energy = 1.0
H  7.119000  3.796000  10.029000
C  6.436000  4.389000  9.432000
C  5.131000  4.667000  9.931000
H  4.857000  4.207000  10.834000
C  4.268000  5.494000  9.167000
H  3.290000  5.714000  9.526000
C  4.683000  5.966000  7.908000
H  4.064000  6.735000  7.514000
C  5.902000  5.658000  7.425000
C  6.854000  4.970000  8.252000
H  7.896000  4.847000  7.835000
O  6.200000  6.200000  6.200000